
     Program PWSCF v.6.4.1 starts on 30Apr2021 at 11:16:20 

     This program is part of the open-source Quantum ESPRESSO suite
     for quantum simulation of materials; please cite
         "P. Giannozzi et al., J. Phys.:Condens. Matter 21 395502 (2009);
         "P. Giannozzi et al., J. Phys.:Condens. Matter 29 465901 (2017);
          URL http://www.quantum-espresso.org", 
     in publications or presentations arising from this work. More details at
     http://www.quantum-espresso.org/quote

     Serial version
     Waiting for input...
     Reading input from standard input
Warning: card  &IONS ignored
Warning: card         ION_DYNAMICS='BFGS', ignored
Warning: card         UPSCALE=20.0, ignored
Warning: card  / ignored

     Current dimensions of program PWSCF are:
     Max number of different atomic species (ntypx) = 10
     Max number of k-points (npk) =  40000
     Max angular momentum in pseudopotentials (lmaxx) =  3
               file H.pz-vbc.UPF: wavefunction(s)  1S renormalized

     gamma-point specific algorithms are used

     G-vector sticks info
     --------------------
     sticks:   dense  smooth     PW     G-vecs:    dense   smooth      PW
     Sum        8585    8585   2145               599161   599161   74773


     Title: 
     Ge5H12                                                                     


     bravais-lattice index     =            1
     lattice parameter (alat)  =      30.0000  a.u.
     unit-cell volume          =   27000.0000 (a.u.)^3
     number of atoms/cell      =           17
     number of atomic types    =            2
     number of electrons       =        32.00
     number of Kohn-Sham states=           60
     kinetic-energy cutoff     =      30.0000  Ry
     charge density cutoff     =     120.0000  Ry
     convergence threshold     =      1.0E-08
     mixing beta               =       0.7000
     number of iterations used =            8  plain     mixing
     Exchange-correlation      =  SLA  PZ   NOGX NOGC ( 1  1  0  0 0 0)

     celldm(1)=  30.000000  celldm(2)=   0.000000  celldm(3)=   0.000000
     celldm(4)=   0.000000  celldm(5)=   0.000000  celldm(6)=   0.000000

     crystal axes: (cart. coord. in units of alat)
               a(1) = (   1.000000   0.000000   0.000000 )  
               a(2) = (   0.000000   1.000000   0.000000 )  
               a(3) = (   0.000000   0.000000   1.000000 )  

     reciprocal axes: (cart. coord. in units 2 pi/alat)
               b(1) = (  1.000000  0.000000  0.000000 )  
               b(2) = (  0.000000  1.000000  0.000000 )  
               b(3) = (  0.000000  0.000000  1.000000 )  


     PseudoPot. # 1 for Ge read from file:
     ../../pseudo/Ge.pz-bhs.UPF
     MD5 check sum: b7b4c8185357afdf0fa67a96e0e23842
     Pseudo is Norm-conserving, Zval =  4.0
     Generated by new atomic code, or converted to UPF format
     Using radial grid of  291 points,  2 beta functions with: 
                l(1) =   0
                l(2) =   1

     PseudoPot. # 2 for H  read from file:
     ../../pseudo/H.pz-vbc.UPF
     MD5 check sum: 90becb985b714f09656c73597998d266
     Pseudo is Norm-conserving, Zval =  1.0
     Generated by new atomic code, or converted to UPF format
     Using radial grid of  131 points,  0 beta functions with: 

     atomic species   valence    mass     pseudopotential
        Ge             4.00    72.61000     Ge( 1.00)
        H              1.00     1.00794     H ( 1.00)

     No symmetry found


                                    s                        frac. trans.

      isym =  1     identity                                     

 cryst.   s( 1) = (     1          0          0      )
                  (     0          1          0      )
                  (     0          0          1      )

 cart.    s( 1) = (  1.0000000  0.0000000  0.0000000 )
                  (  0.0000000  1.0000000  0.0000000 )
                  (  0.0000000  0.0000000  1.0000000 )


     point group C_1 (1)    
     there are  1 classes
     the character table:

       E    
A      1.00

     the symmetry operations in each class and the name of the first element:

     E        1
          identity                                               

   Cartesian axes

     site n.     atom                  positions (alat units)
         1           H   tau(   1) = (   0.4311180   0.2948670   0.3190103  )
         2           H   tau(   2) = (   0.6385707   0.3628992   0.4308494  )
         3           H   tau(   3) = (   0.6311299   0.5050654   0.3664325  )
         4           H   tau(   4) = (   0.6412459   0.4900622   0.5216099  )
         5           H   tau(   5) = (   0.4268676   0.6399490   0.3877962  )
         6           H   tau(   6) = (   0.4378066   0.6291750   0.5432449  )
         7           H   tau(   7) = (   0.3060382   0.5862757   0.4710488  )
         8           H   tau(   8) = (   0.4486685   0.4086641   0.6509442  )
         9           H   tau(   9) = (   0.4491827   0.2786964   0.5641852  )
        10           H   tau(  10) = (   0.3185926   0.3635048   0.5770921  )
        11           H   tau(  11) = (   0.4244037   0.4348688   0.2499365  )
        12           H   tau(  12) = (   0.3025024   0.3825364   0.3324389  )
        13           Ge  tau(  13) = (   0.3985471   0.3849254   0.3279596  )
        14           Ge  tau(  14) = (   0.4144508   0.3681581   0.5706947  )
        15           Ge  tau(  15) = (   0.4546348   0.4481782   0.4511178  )
        16           Ge  tau(  16) = (   0.4019863   0.5873528   0.4643829  )
        17           Ge  tau(  17) = (   0.6036813   0.4518741   0.4417219  )

   Crystallographic axes

     site n.     atom                  positions (cryst. coord.)
         1           H   tau(   1) = (  0.4311180  0.2948670  0.3190103  )
         2           H   tau(   2) = (  0.6385707  0.3628992  0.4308494  )
         3           H   tau(   3) = (  0.6311299  0.5050654  0.3664325  )
         4           H   tau(   4) = (  0.6412459  0.4900622  0.5216099  )
         5           H   tau(   5) = (  0.4268676  0.6399490  0.3877962  )
         6           H   tau(   6) = (  0.4378066  0.6291750  0.5432449  )
         7           H   tau(   7) = (  0.3060382  0.5862757  0.4710488  )
         8           H   tau(   8) = (  0.4486685  0.4086641  0.6509442  )
         9           H   tau(   9) = (  0.4491827  0.2786964  0.5641852  )
        10           H   tau(  10) = (  0.3185926  0.3635048  0.5770921  )
        11           H   tau(  11) = (  0.4244037  0.4348688  0.2499365  )
        12           H   tau(  12) = (  0.3025024  0.3825364  0.3324389  )
        13           Ge  tau(  13) = (  0.3985471  0.3849254  0.3279596  )
        14           Ge  tau(  14) = (  0.4144508  0.3681581  0.5706947  )
        15           Ge  tau(  15) = (  0.4546348  0.4481782  0.4511178  )
        16           Ge  tau(  16) = (  0.4019863  0.5873528  0.4643829  )
        17           Ge  tau(  17) = (  0.6036813  0.4518741  0.4417219  )

     number of k points=     1  gaussian smearing, width (Ry)=  0.0005
                       cart. coord. in units 2pi/alat
        k(    1) = (   0.0000000   0.0000000   0.0000000), wk =   2.0000000

                       cryst. coord.
        k(    1) = (   0.0000000   0.0000000   0.0000000), wk =   2.0000000

     Dense  grid:   299581 G-vectors     FFT dimensions: ( 108, 108, 108)

     Dynamical RAM for                 wfc:      34.30 MB

     Dynamical RAM for     wfc (w. buffer):      34.30 MB

     Dynamical RAM for           str. fact:       9.14 MB

     Dynamical RAM for           local pot:       0.00 MB

     Dynamical RAM for          nlocal pot:      11.43 MB

     Dynamical RAM for                qrad:       0.72 MB

     Dynamical RAM for          rho,v,vnew:      42.55 MB

     Dynamical RAM for               rhoin:      14.18 MB

     Dynamical RAM for            rho*nmix:      73.14 MB

     Dynamical RAM for           G-vectors:      19.43 MB

     Dynamical RAM for          h,s,v(r/c):       1.32 MB

     Dynamical RAM for          <psi|beta>:       0.01 MB

     Dynamical RAM for                 psi:     137.18 MB

     Dynamical RAM for                hpsi:     137.18 MB

     Dynamical RAM for      wfcinit/wfcrot:      68.67 MB

     Estimated static dynamical RAM per process >     266.65 MB

     Estimated max dynamical RAM per process >     542.35 MB

     Initial potential from superposition of free atoms

     starting charge   29.49943, renormalised to   32.00000

     negative rho (up, down):  4.011E-02 0.000E+00
     Starting wfcs are   32 randomized atomic wfcs +   28 random wfcs

     total cpu time spent up to now is        1.8 secs

     Self-consistent Calculation

     iteration #  1     ecut=    30.00 Ry     beta= 0.70
     Davidson diagonalization with overlap
     ethr =  1.00E-02,  avg # of iterations =  7.0

     negative rho (up, down):  1.148E-02 0.000E+00

     total cpu time spent up to now is        8.3 secs

     total energy              =     -53.40263175 Ry
     Harris-Foulkes estimate   =     -53.62409938 Ry
     estimated scf accuracy    <       0.48472588 Ry

     iteration #  2     ecut=    30.00 Ry     beta= 0.70
     Davidson diagonalization with overlap
     ethr =  1.51E-03,  avg # of iterations =  3.0

     negative rho (up, down):  3.371E-03 0.000E+00

     total cpu time spent up to now is       12.4 secs

     total energy              =     -53.43529134 Ry
     Harris-Foulkes estimate   =     -53.46449343 Ry
     estimated scf accuracy    <       0.04465289 Ry

     iteration #  3     ecut=    30.00 Ry     beta= 0.70
     Davidson diagonalization with overlap
     ethr =  1.40E-04,  avg # of iterations =  6.0

     negative rho (up, down):  1.104E-03 0.000E+00

     total cpu time spent up to now is       19.0 secs

     total energy              =     -53.44650293 Ry
     Harris-Foulkes estimate   =     -53.45849202 Ry
     estimated scf accuracy    <       0.02286980 Ry

     iteration #  4     ecut=    30.00 Ry     beta= 0.70
     Davidson diagonalization with overlap
     ethr =  7.15E-05,  avg # of iterations =  2.0

     negative rho (up, down):  8.337E-05 0.000E+00

     total cpu time spent up to now is       22.1 secs

     total energy              =     -53.45139020 Ry
     Harris-Foulkes estimate   =     -53.45142647 Ry
     estimated scf accuracy    <       0.00013381 Ry

     iteration #  5     ecut=    30.00 Ry     beta= 0.70
     Davidson diagonalization with overlap
     ethr =  4.18E-07,  avg # of iterations =  6.0

     negative rho (up, down):  3.112E-06 0.000E+00

     total cpu time spent up to now is       27.5 secs

     total energy              =     -53.45144874 Ry
     Harris-Foulkes estimate   =     -53.45145093 Ry
     estimated scf accuracy    <       0.00000540 Ry

     iteration #  6     ecut=    30.00 Ry     beta= 0.70
     Davidson diagonalization with overlap
     ethr =  1.69E-08,  avg # of iterations =  1.0

     negative rho (up, down):  9.809E-08 0.000E+00

     total cpu time spent up to now is       30.6 secs

     total energy              =     -53.45144927 Ry
     Harris-Foulkes estimate   =     -53.45144933 Ry
     estimated scf accuracy    <       0.00000026 Ry

     iteration #  7     ecut=    30.00 Ry     beta= 0.70
     Davidson diagonalization with overlap
     ethr =  8.22E-10,  avg # of iterations =  3.0

     total cpu time spent up to now is       34.0 secs

     total energy              =     -53.45144935 Ry
     Harris-Foulkes estimate   =     -53.45144935 Ry
     estimated scf accuracy    <       0.00000003 Ry

     iteration #  8     ecut=    30.00 Ry     beta= 0.70
     Davidson diagonalization with overlap
     ethr =  8.32E-11,  avg # of iterations =  2.0

     total cpu time spent up to now is       37.0 secs

     End of self-consistent calculation

          k = 0.0000 0.0000 0.0000 ( 37387 PWs)   bands (ev):

   -15.2462 -13.7595 -13.7582 -13.7572 -11.2893  -8.4902  -8.4886  -8.4873
    -8.1777  -8.1769  -7.9430  -7.9423  -7.9417  -6.5128  -6.5109  -6.5094
    -0.8435  -0.8060  -0.6966  -0.6934  -0.6894  -0.4116  -0.4114   0.3202
     0.3354   0.3558   0.4410   0.4744   0.4929   0.5066   0.6623   0.7393
     0.8787   0.9054   0.9089   0.9961   1.0875   1.1262   1.1935   1.2033
     1.2561   1.2812   1.3144   1.4484   1.4738   1.5015   1.5256   1.5601
     1.6535   1.6889   1.7733   1.8040   1.8674   1.8890   2.0127   2.0406
     2.0791   2.0820   2.2528   2.2693

     occupation numbers 
     1.0000   1.0000   1.0000   1.0000   1.0000   1.0000   1.0000   1.0000
     1.0000   1.0000   1.0000   1.0000   1.0000   1.0000   1.0000   1.0000
     0.0000   0.0000   0.0000   0.0000   0.0000   0.0000   0.0000   0.0000
     0.0000   0.0000   0.0000   0.0000   0.0000   0.0000   0.0000   0.0000
     0.0000   0.0000   0.0000   0.0000   0.0000   0.0000   0.0000   0.0000
     0.0000   0.0000   0.0000   0.0000   0.0000   0.0000   0.0000   0.0000
     0.0000   0.0000   0.0000   0.0000   0.0000   0.0000   0.0000   0.0000
     0.0000   0.0000   0.0000   0.0000

     the Fermi energy is    -2.1027 ev

!    total energy              =     -53.45144936 Ry
     Harris-Foulkes estimate   =     -53.45144936 Ry
     estimated scf accuracy    <          4.1E-09 Ry

     The total energy is the sum of the following terms:

     one-electron contribution =    -193.99421379 Ry
     hartree contribution      =      98.30830679 Ry
     xc contribution           =     -19.25243724 Ry
     ewald contribution        =      61.48689488 Ry
     smearing contrib. (-TS)   =      -0.00000000 Ry

     convergence has been achieved in   8 iterations

     Forces acting on atoms (cartesian axes, Ry/au):

     atom    1 type  2   force =     0.00111091   -0.00270905   -0.00018052
     atom    2 type  2   force =     0.00093927   -0.00273521   -0.00030522
     atom    3 type  2   force =     0.00066408    0.00160846   -0.00233482
     atom    4 type  2   force =     0.00100051    0.00118170    0.00246706
     atom    5 type  2   force =     0.00083116    0.00143892   -0.00242966
     atom    6 type  2   force =     0.00112483    0.00110156    0.00244525
     atom    7 type  2   force =    -0.00286053   -0.00018941    0.00021666
     atom    8 type  2   force =     0.00110742    0.00129334    0.00235024
     atom    9 type  2   force =     0.00109673   -0.00266224   -0.00033171
     atom   10 type  2   force =    -0.00290512   -0.00004315    0.00009939
     atom   11 type  2   force =     0.00088325    0.00162412   -0.00230037
     atom   12 type  2   force =    -0.00294978   -0.00000136    0.00031624
     atom   13 type  1   force =    -0.00048508   -0.00049084   -0.00102476
     atom   14 type  1   force =    -0.00034615   -0.00063165    0.00097452
     atom   15 type  1   force =     0.00000238    0.00001942    0.00002677
     atom   16 type  1   force =    -0.00042581    0.00114654    0.00009364
     atom   17 type  1   force =     0.00121194    0.00004882   -0.00008270
     The non-local contrib.  to forces
     atom    1 type  2   force =     0.00000000    0.00000000    0.00000000
     atom    2 type  2   force =     0.00000000    0.00000000    0.00000000
     atom    3 type  2   force =     0.00000000    0.00000000    0.00000000
     atom    4 type  2   force =     0.00000000    0.00000000    0.00000000
     atom    5 type  2   force =     0.00000000    0.00000000    0.00000000
     atom    6 type  2   force =     0.00000000    0.00000000    0.00000000
     atom    7 type  2   force =     0.00000000    0.00000000    0.00000000
     atom    8 type  2   force =     0.00000000    0.00000000    0.00000000
     atom    9 type  2   force =     0.00000000    0.00000000    0.00000000
     atom   10 type  2   force =     0.00000000    0.00000000    0.00000000
     atom   11 type  2   force =     0.00000000    0.00000000    0.00000000
     atom   12 type  2   force =     0.00000000    0.00000000    0.00000000
     atom   13 type  1   force =    -0.00820899   -0.00929020   -0.01798830
     atom   14 type  1   force =    -0.00587661   -0.01170878    0.01749601
     atom   15 type  1   force =     0.00003513   -0.00011156    0.00007824
     atom   16 type  1   force =    -0.00767506    0.02036659    0.00197574
     atom   17 type  1   force =     0.02181031    0.00050787   -0.00135680
     The ionic contribution  to forces
     atom    1 type  2   force =     0.27203250   -1.42547533   -0.50571254
     atom    2 type  2   force =     0.93557315   -1.20667853   -0.17813996
     atom    3 type  2   force =     0.83330111    0.74134306   -1.06187373
     atom    4 type  2   force =     0.97061033    0.53730045    1.06514818
     atom    5 type  2   force =     0.17752131    1.14354371   -1.00916146
     atom    6 type  2   force =     0.32745483    0.99899288    1.12169059
     atom    7 type  2   force =    -1.47298020    0.41738412    0.13247231
     atom    8 type  2   force =     0.34482620    0.30520749    1.45910016
     atom    9 type  2   force =     0.35115263   -1.46730951    0.28329291
     atom   10 type  2   force =    -1.43483529   -0.31206549    0.45916926
     atom   11 type  2   force =     0.18006191    0.48885391   -1.43879166
     atom   12 type  2   force =    -1.48502053   -0.22940158   -0.32196935
     atom   13 type  1   force =    -0.97302932   -1.09431356   -2.13733403
     atom   14 type  1   force =    -0.69754855   -1.38906852    2.07436347
     atom   15 type  1   force =     0.00381178    0.01016137   -0.00453313
     atom   16 type  1   force =    -0.91330508    2.41037679    0.22846818
     atom   17 type  1   force =     2.58037322    0.07114873   -0.16618920
     The local contribution  to forces
     atom    1 type  2   force =    -0.27092787    1.42276521    0.50553204
     atom    2 type  2   force =    -0.93463044    1.20394094    0.17783637
     atom    3 type  2   force =    -0.83263346   -0.73973211    1.05953793
     atom    4 type  2   force =    -0.96960772   -0.53611736   -1.06267760
     atom    5 type  2   force =    -0.17669532   -1.14210399    1.00673535
     atom    6 type  2   force =    -0.32633610   -0.99789246   -1.11924513
     atom    7 type  2   force =     1.47012074   -0.41757495   -0.13225338
     atom    8 type  2   force =    -0.34372509   -0.30391462   -1.45675162
     atom    9 type  2   force =    -0.35006204    1.46464943   -0.28362216
     atom   10 type  2   force =     1.43193243    0.31202467   -0.45907012
     atom   11 type  2   force =    -0.17918469   -0.48723057    1.43649047
     atom   12 type  2   force =     1.48206941    0.22940018    0.32228773
     atom   13 type  1   force =     0.98072912    1.10311321    2.15430882
     atom   14 type  1   force =     0.70306003    1.40015871   -2.09088923
     atom   15 type  1   force =    -0.00388039   -0.01002805    0.00450090
     atom   16 type  1   force =     0.92053649   -2.42960860   -0.23033823
     atom   17 type  1   force =    -2.60096704   -0.07160497    0.16747349
     The core correction contribution to forces
     atom    1 type  2   force =     0.00000000    0.00000000    0.00000000
     atom    2 type  2   force =     0.00000000    0.00000000    0.00000000
     atom    3 type  2   force =     0.00000000    0.00000000    0.00000000
     atom    4 type  2   force =     0.00000000    0.00000000    0.00000000
     atom    5 type  2   force =     0.00000000    0.00000000    0.00000000
     atom    6 type  2   force =     0.00000000    0.00000000    0.00000000
     atom    7 type  2   force =     0.00000000    0.00000000    0.00000000
     atom    8 type  2   force =     0.00000000    0.00000000    0.00000000
     atom    9 type  2   force =     0.00000000    0.00000000    0.00000000
     atom   10 type  2   force =     0.00000000    0.00000000    0.00000000
     atom   11 type  2   force =     0.00000000    0.00000000    0.00000000
     atom   12 type  2   force =     0.00000000    0.00000000    0.00000000
     atom   13 type  1   force =     0.00000000    0.00000000    0.00000000
     atom   14 type  1   force =     0.00000000    0.00000000    0.00000000
     atom   15 type  1   force =     0.00000000    0.00000000    0.00000000
     atom   16 type  1   force =     0.00000000    0.00000000    0.00000000
     atom   17 type  1   force =     0.00000000    0.00000000    0.00000000
     The Hubbard contrib.    to forces
     atom    1 type  2   force =     0.00000000    0.00000000    0.00000000
     atom    2 type  2   force =     0.00000000    0.00000000    0.00000000
     atom    3 type  2   force =     0.00000000    0.00000000    0.00000000
     atom    4 type  2   force =     0.00000000    0.00000000    0.00000000
     atom    5 type  2   force =     0.00000000    0.00000000    0.00000000
     atom    6 type  2   force =     0.00000000    0.00000000    0.00000000
     atom    7 type  2   force =     0.00000000    0.00000000    0.00000000
     atom    8 type  2   force =     0.00000000    0.00000000    0.00000000
     atom    9 type  2   force =     0.00000000    0.00000000    0.00000000
     atom   10 type  2   force =     0.00000000    0.00000000    0.00000000
     atom   11 type  2   force =     0.00000000    0.00000000    0.00000000
     atom   12 type  2   force =     0.00000000    0.00000000    0.00000000
     atom   13 type  1   force =     0.00000000    0.00000000    0.00000000
     atom   14 type  1   force =     0.00000000    0.00000000    0.00000000
     atom   15 type  1   force =     0.00000000    0.00000000    0.00000000
     atom   16 type  1   force =     0.00000000    0.00000000    0.00000000
     atom   17 type  1   force =     0.00000000    0.00000000    0.00000000
     The SCF correction term to forces
     atom    1 type  2   force =     0.00000519    0.00000112    0.00000042
     atom    2 type  2   force =    -0.00000452    0.00000243   -0.00000119
     atom    3 type  2   force =    -0.00000466   -0.00000245    0.00000142
     atom    4 type  2   force =    -0.00000318   -0.00000134   -0.00000308
     atom    5 type  2   force =     0.00000408   -0.00000075   -0.00000311
     atom    6 type  2   force =     0.00000501    0.00000120    0.00000023
     atom    7 type  2   force =    -0.00000216    0.00000146   -0.00000183
     atom    8 type  2   force =     0.00000523    0.00000051    0.00000215
     atom    9 type  2   force =     0.00000505   -0.00000211   -0.00000202
     atom   10 type  2   force =    -0.00000335   -0.00000228    0.00000069
     atom   11 type  2   force =     0.00000494    0.00000083    0.00000126
     atom   12 type  2   force =     0.00000025    0.00000009   -0.00000171
     atom   13 type  1   force =     0.00002303   -0.00000023   -0.00001081
     atom   14 type  1   force =     0.00001790   -0.00001301    0.00000470
     atom   15 type  1   force =     0.00003477   -0.00000229   -0.00001881
     atom   16 type  1   force =     0.00001675    0.00001180   -0.00001162
     atom   17 type  1   force =    -0.00000563   -0.00000276   -0.00000975

     Total force =     0.010401     Total SCF correction =     0.000061

     Writing output data file Ge5H12.save/

     init_run     :      1.59s CPU      1.71s WALL (       1 calls)
     electrons    :     34.59s CPU     35.27s WALL (       1 calls)
     forces       :      0.64s CPU      0.66s WALL (       1 calls)

     Called by init_run:
     wfcinit      :      1.15s CPU      1.23s WALL (       1 calls)
     wfcinit:atom :      0.02s CPU      0.04s WALL (       1 calls)
     wfcinit:wfcr :      1.07s CPU      1.12s WALL (       1 calls)
     potinit      :      0.15s CPU      0.17s WALL (       1 calls)
     hinit0       :      0.19s CPU      0.21s WALL (       1 calls)

     Called by electrons:
     c_bands      :     28.93s CPU     29.24s WALL (       8 calls)
     sum_band     :      4.39s CPU      4.46s WALL (       8 calls)
     v_of_rho     :      0.78s CPU      0.84s WALL (       9 calls)
     v_h          :      0.27s CPU      0.32s WALL (       9 calls)
     v_xc         :      0.51s CPU      0.52s WALL (       9 calls)
     mix_rho      :      0.49s CPU      0.70s WALL (       8 calls)

     Called by c_bands:
     init_us_2    :      0.13s CPU      0.13s WALL (      17 calls)
     regterg      :     28.82s CPU     29.13s WALL (       8 calls)

     Called by sum_band:

     Called by *egterg:
     h_psi        :     24.30s CPU     26.03s WALL (      39 calls)
     g_psi        :      0.13s CPU      0.13s WALL (      30 calls)
     rdiaghg      :      0.20s CPU      0.21s WALL (      38 calls)
     regterg:over :      1.65s CPU      1.17s WALL (      30 calls)
     regterg:upda :      1.92s CPU      0.62s WALL (      30 calls)
     regterg:last :      0.80s CPU      0.24s WALL (       9 calls)

     Called by h_psi:
     h_psi:pot    :     24.17s CPU     25.89s WALL (      39 calls)
     h_psi:calbec :      0.24s CPU      0.25s WALL (      39 calls)
     vloc_psi     :     23.64s CPU     25.54s WALL (      39 calls)
     add_vuspsi   :      0.30s CPU      0.10s WALL (      39 calls)

     General routines
     calbec       :      0.27s CPU      0.28s WALL (      43 calls)
     fft          :      0.60s CPU      0.61s WALL (      28 calls)
     ffts         :      0.18s CPU      0.18s WALL (       8 calls)
     fftw         :     24.68s CPU     26.53s WALL (    1698 calls)


     PWSCF        :     36.85s CPU     37.86s WALL


   This run was terminated on:  11:16:58  30Apr2021            

=------------------------------------------------------------------------------=
   JOB DONE.
=------------------------------------------------------------------------------=
