
     Program PWSCF v.6.4.1 starts on 30Apr2021 at 11:18:29 

     This program is part of the open-source Quantum ESPRESSO suite
     for quantum simulation of materials; please cite
         "P. Giannozzi et al., J. Phys.:Condens. Matter 21 395502 (2009);
         "P. Giannozzi et al., J. Phys.:Condens. Matter 29 465901 (2017);
          URL http://www.quantum-espresso.org", 
     in publications or presentations arising from this work. More details at
     http://www.quantum-espresso.org/quote

     Serial version
     Waiting for input...
     Reading input from standard input
Warning: card  &IONS ignored
Warning: card         ION_DYNAMICS='BFGS', ignored
Warning: card         UPSCALE=20.0, ignored
Warning: card  / ignored

     Current dimensions of program PWSCF are:
     Max number of different atomic species (ntypx) = 10
     Max number of k-points (npk) =  40000
     Max angular momentum in pseudopotentials (lmaxx) =  3

     Atomic positions and unit cell read from directory:
     ./tmp/Ge5H12.save/

               file H.pz-vbc.UPF: wavefunction(s)  1S renormalized

     gamma-point specific algorithms are used

     G-vector sticks info
     --------------------
     sticks:   dense  smooth     PW     G-vecs:    dense   smooth      PW
     Sum        8585    8585   2145               599161   599161   74773


     Title: 
     Ge5H12                                                                     


     bravais-lattice index     =            1
     lattice parameter (alat)  =      30.0000  a.u.
     unit-cell volume          =   27000.0000 (a.u.)^3
     number of atoms/cell      =           17
     number of atomic types    =            2
     number of electrons       =        32.00
     number of Kohn-Sham states=           60
     kinetic-energy cutoff     =      30.0000  Ry
     charge density cutoff     =     120.0000  Ry
     Exchange-correlation      =  SLA  PZ   NOGX NOGC ( 1  1  0  0 0 0)

     celldm(1)=  30.000000  celldm(2)=   0.000000  celldm(3)=   0.000000
     celldm(4)=   0.000000  celldm(5)=   0.000000  celldm(6)=   0.000000

     crystal axes: (cart. coord. in units of alat)
               a(1) = (   1.000000   0.000000   0.000000 )  
               a(2) = (   0.000000   1.000000   0.000000 )  
               a(3) = (   0.000000   0.000000   1.000000 )  

     reciprocal axes: (cart. coord. in units 2 pi/alat)
               b(1) = (  1.000000  0.000000  0.000000 )  
               b(2) = (  0.000000  1.000000  0.000000 )  
               b(3) = (  0.000000  0.000000  1.000000 )  


     PseudoPot. # 1 for Ge read from file:
     ../../pseudo/Ge.pz-bhs.UPF
     MD5 check sum: b7b4c8185357afdf0fa67a96e0e23842
     Pseudo is Norm-conserving, Zval =  4.0
     Generated by new atomic code, or converted to UPF format
     Using radial grid of  291 points,  2 beta functions with: 
                l(1) =   0
                l(2) =   1

     PseudoPot. # 2 for H  read from file:
     ../../pseudo/H.pz-vbc.UPF
     MD5 check sum: 90becb985b714f09656c73597998d266
     Pseudo is Norm-conserving, Zval =  1.0
     Generated by new atomic code, or converted to UPF format
     Using radial grid of  131 points,  0 beta functions with: 

     atomic species   valence    mass     pseudopotential
        Ge             4.00    72.61000     Ge( 1.00)
        H              1.00     1.00794     H ( 1.00)

     No symmetry found


                                    s                        frac. trans.

      isym =  1     identity                                     

 cryst.   s( 1) = (     1          0          0      )
                  (     0          1          0      )
                  (     0          0          1      )

 cart.    s( 1) = (  1.0000000  0.0000000  0.0000000 )
                  (  0.0000000  1.0000000  0.0000000 )
                  (  0.0000000  0.0000000  1.0000000 )


     point group C_1 (1)    
     there are  1 classes
     the character table:

       E    
A      1.00

     the symmetry operations in each class and the name of the first element:

     E        1
          identity                                               

   Cartesian axes

     site n.     atom                  positions (alat units)
         1           H   tau(   1) = (   0.4311180   0.2948670   0.3190103  )
         2           H   tau(   2) = (   0.6385707   0.3628992   0.4308494  )
         3           H   tau(   3) = (   0.6311299   0.5050654   0.3664325  )
         4           H   tau(   4) = (   0.6412459   0.4900622   0.5216099  )
         5           H   tau(   5) = (   0.4268676   0.6399490   0.3877962  )
         6           H   tau(   6) = (   0.4378066   0.6291750   0.5432449  )
         7           H   tau(   7) = (   0.3060382   0.5862757   0.4710488  )
         8           H   tau(   8) = (   0.4486685   0.4086641   0.6509442  )
         9           H   tau(   9) = (   0.4491827   0.2786964   0.5641852  )
        10           H   tau(  10) = (   0.3185926   0.3635048   0.5770921  )
        11           H   tau(  11) = (   0.4244037   0.4348688   0.2499365  )
        12           H   tau(  12) = (   0.3025024   0.3825364   0.3324389  )
        13           Ge  tau(  13) = (   0.3985471   0.3849254   0.3279596  )
        14           Ge  tau(  14) = (   0.4144508   0.3681581   0.5706947  )
        15           Ge  tau(  15) = (   0.4546348   0.4481782   0.4511178  )
        16           Ge  tau(  16) = (   0.4019863   0.5873528   0.4643829  )
        17           Ge  tau(  17) = (   0.6036813   0.4518741   0.4417219  )

   Crystallographic axes

     site n.     atom                  positions (cryst. coord.)
         1           H   tau(   1) = (  0.4311180  0.2948670  0.3190103  )
         2           H   tau(   2) = (  0.6385707  0.3628992  0.4308494  )
         3           H   tau(   3) = (  0.6311299  0.5050654  0.3664325  )
         4           H   tau(   4) = (  0.6412459  0.4900622  0.5216099  )
         5           H   tau(   5) = (  0.4268676  0.6399490  0.3877962  )
         6           H   tau(   6) = (  0.4378066  0.6291750  0.5432449  )
         7           H   tau(   7) = (  0.3060382  0.5862757  0.4710488  )
         8           H   tau(   8) = (  0.4486685  0.4086641  0.6509442  )
         9           H   tau(   9) = (  0.4491827  0.2786964  0.5641852  )
        10           H   tau(  10) = (  0.3185926  0.3635048  0.5770921  )
        11           H   tau(  11) = (  0.4244037  0.4348688  0.2499365  )
        12           H   tau(  12) = (  0.3025024  0.3825364  0.3324389  )
        13           Ge  tau(  13) = (  0.3985471  0.3849254  0.3279596  )
        14           Ge  tau(  14) = (  0.4144508  0.3681581  0.5706947  )
        15           Ge  tau(  15) = (  0.4546348  0.4481782  0.4511178  )
        16           Ge  tau(  16) = (  0.4019863  0.5873528  0.4643829  )
        17           Ge  tau(  17) = (  0.6036813  0.4518741  0.4417219  )

     number of k points=     1  gaussian smearing, width (Ry)=  0.0005
                       cart. coord. in units 2pi/alat
        k(    1) = (   0.0000000   0.0000000   0.0000000), wk =   2.0000000

                       cryst. coord.
        k(    1) = (   0.0000000   0.0000000   0.0000000), wk =   2.0000000

     Dense  grid:   299581 G-vectors     FFT dimensions: ( 108, 108, 108)

     Dynamical RAM for                 wfc:      34.30 MB

     Dynamical RAM for     wfc (w. buffer):      34.30 MB

     Dynamical RAM for           str. fact:       9.14 MB

     Dynamical RAM for           local pot:       0.00 MB

     Dynamical RAM for          nlocal pot:      11.43 MB

     Dynamical RAM for                qrad:       0.72 MB

     Dynamical RAM for          rho,v,vnew:      42.55 MB

     Dynamical RAM for           G-vectors:      19.43 MB

     Dynamical RAM for          h,s,v(r/c):       1.32 MB

     Dynamical RAM for          <psi|beta>:       0.01 MB

     Dynamical RAM for                 psi:     137.18 MB

     Dynamical RAM for                hpsi:     137.18 MB

     Dynamical RAM for      wfcinit/wfcrot:      68.67 MB

     Estimated static dynamical RAM per process >     179.33 MB

     Estimated max dynamical RAM per process >     455.02 MB

     The potential is recalculated from file :
     ./tmp/Ge5H12.save/charge-density

     Starting wfcs are   32 randomized atomic wfcs +   28 random wfcs

     Band Structure Calculation
     Davidson diagonalization with overlap

     Computing kpt #:     1
     total cpu time spent up to now is       32.8 secs

     ethr =  3.13E-11,  avg # of iterations = 55.0

     total cpu time spent up to now is       32.8 secs

     End of band structure calculation

          k = 0.0000 0.0000 0.0000 ( 37387 PWs)   bands (ev):

   -15.2462 -13.7595 -13.7585 -13.7571 -11.2893  -8.4903  -8.4886  -8.4874
    -8.1778  -8.1769  -7.9431  -7.9424  -7.9418  -6.5128  -6.5110  -6.5094
    -0.8435  -0.8060  -0.6966  -0.6934  -0.6895  -0.4116  -0.4115   0.3202
     0.3355   0.3558   0.4411   0.4744   0.4929   0.5066   0.6624   0.7394
     0.8788   0.9054   0.9090   0.9961   1.0876   1.1263   1.1936   1.2034
     1.2562   1.2813   1.3145   1.4484   1.4738   1.5015   1.5256   1.5602
     1.6535   1.6889   1.7733   1.8040   1.8674   1.8890   2.0127   2.0407
     2.0791   2.0820   2.2527   2.2693

     occupation numbers 
     1.0000   1.0000   1.0000   1.0000   1.0000   1.0000   1.0000   1.0000
     1.0000   1.0000   1.0000   1.0000   1.0000   1.0000   1.0000   1.0000
     0.0000   0.0000   0.0000   0.0000   0.0000   0.0000   0.0000   0.0000
     0.0000   0.0000   0.0000   0.0000   0.0000   0.0000   0.0000   0.0000
     0.0000   0.0000   0.0000   0.0000   0.0000   0.0000   0.0000   0.0000
     0.0000   0.0000   0.0000   0.0000   0.0000   0.0000   0.0000   0.0000
     0.0000   0.0000   0.0000   0.0000   0.0000   0.0000   0.0000   0.0000
     0.0000   0.0000   0.0000   0.0000

     the Fermi energy is    -2.1028 ev

     Writing output data file Ge5H12.save/

     init_run     :      0.42s CPU      0.47s WALL (       1 calls)
     electrons    :     36.54s CPU     32.25s WALL (       1 calls)

     Called by init_run:
     wfcinit      :      0.00s CPU      0.00s WALL (       1 calls)
     wfcinit:atom :      0.02s CPU      0.02s WALL (       1 calls)
     wfcinit:wfcr :      1.10s CPU      1.12s WALL (       1 calls)
     potinit      :      0.13s CPU      0.15s WALL (       1 calls)
     hinit0       :      0.19s CPU      0.21s WALL (       1 calls)

     Called by electrons:
     c_bands      :     36.54s CPU     32.24s WALL (       1 calls)
     v_of_rho     :      0.09s CPU      0.10s WALL (       1 calls)
     v_h          :      0.03s CPU      0.04s WALL (       1 calls)
     v_xc         :      0.06s CPU      0.06s WALL (       1 calls)

     Called by c_bands:
     init_us_2    :      0.01s CPU      0.01s WALL (       1 calls)
     regterg      :     35.37s CPU     31.01s WALL (       3 calls)

     Called by sum_band:

     Called by *egterg:
     h_psi        :     27.13s CPU     27.18s WALL (      59 calls)
     g_psi        :      0.19s CPU      0.19s WALL (      55 calls)
     rdiaghg      :      0.40s CPU      0.36s WALL (      56 calls)
     regterg:over :      2.97s CPU      1.92s WALL (      55 calls)
     regterg:upda :      3.68s CPU      1.14s WALL (      55 calls)
     regterg:last :      1.62s CPU      0.51s WALL (       9 calls)

     Called by h_psi:
     h_psi:pot    :     26.99s CPU     27.04s WALL (      59 calls)
     h_psi:calbec :      0.27s CPU      0.27s WALL (      59 calls)
     vloc_psi     :     26.36s CPU     26.66s WALL (      59 calls)
     add_vuspsi   :      0.36s CPU      0.11s WALL (      59 calls)

     General routines
     calbec       :      0.27s CPU      0.27s WALL (      59 calls)
     fft          :      0.08s CPU      0.08s WALL (       3 calls)
     fftw         :     23.82s CPU     24.08s WALL (    1678 calls)
     davcio       :      0.00s CPU      0.03s WALL (       2 calls)


     PWSCF        :     37.02s CPU     32.85s WALL


   This run was terminated on:  11:19: 2  30Apr2021            

=------------------------------------------------------------------------------=
   JOB DONE.
=------------------------------------------------------------------------------=
