
     Program PWSCF v.6.4.1 starts on  3May2021 at 11:36:21 

     This program is part of the open-source Quantum ESPRESSO suite
     for quantum simulation of materials; please cite
         "P. Giannozzi et al., J. Phys.:Condens. Matter 21 395502 (2009);
         "P. Giannozzi et al., J. Phys.:Condens. Matter 29 465901 (2017);
          URL http://www.quantum-espresso.org", 
     in publications or presentations arising from this work. More details at
     http://www.quantum-espresso.org/quote

     Serial version
     Waiting for input...
     Reading input from standard input
     Message from routine read_cards :
     DEPRECATED: no units specified in ATOMIC_POSITIONS card
     Message from routine read_cards :
     ATOMIC_POSITIONS: units set to alat

     Current dimensions of program PWSCF are:
     Max number of different atomic species (ntypx) = 10
     Max number of k-points (npk) =  40000
     Max angular momentum in pseudopotentials (lmaxx) =  3

     Atomic positions and unit cell read from directory:
     ./tmp/Si_bulk.save/


     G-vector sticks info
     --------------------
     sticks:   dense  smooth     PW     G-vecs:    dense   smooth      PW
     Sum         499     499    163                 7391     7391    1459



     bravais-lattice index     =            2
     lattice parameter (alat)  =      10.2000  a.u.
     unit-cell volume          =     265.3020 (a.u.)^3
     number of atoms/cell      =            2
     number of atomic types    =            1
     number of electrons       =         8.00
     number of Kohn-Sham states=           30
     kinetic-energy cutoff     =      35.0000  Ry
     charge density cutoff     =     140.0000  Ry
     Exchange-correlation      =  SLA  PW   PBE  PBE ( 1  4  3  4 0 0)

     celldm(1)=  10.200000  celldm(2)=   0.000000  celldm(3)=   0.000000
     celldm(4)=   0.000000  celldm(5)=   0.000000  celldm(6)=   0.000000

     crystal axes: (cart. coord. in units of alat)
               a(1) = (  -0.500000   0.000000   0.500000 )  
               a(2) = (   0.000000   0.500000   0.500000 )  
               a(3) = (  -0.500000   0.500000   0.000000 )  

     reciprocal axes: (cart. coord. in units 2 pi/alat)
               b(1) = ( -1.000000 -1.000000  1.000000 )  
               b(2) = (  1.000000  1.000000  1.000000 )  
               b(3) = ( -1.000000  1.000000 -1.000000 )  


     PseudoPot. # 1 for Si read from file:
     ../../Pseudo/Si.pbe-rrkj.UPF
     MD5 check sum: cf7ab5690cd9a85b22c4813f7e365554
     Pseudo is Norm-conserving, Zval =  4.0
     Generated by new atomic code, or converted to UPF format
     Using radial grid of  883 points,  3 beta functions with: 
                l(1) =   0
                l(2) =   0
                l(3) =   1

     atomic species   valence    mass     pseudopotential
        Si             4.00    28.08550     Si( 1.00)

     48 Sym. Ops., with inversion, found (24 have fractional translation)


                                    s                        frac. trans.

      isym =  1     identity                                     

 cryst.   s( 1) = (     1          0          0      )
                  (     0          1          0      )
                  (     0          0          1      )

 cart.    s( 1) = (  1.0000000  0.0000000  0.0000000 )
                  (  0.0000000  1.0000000  0.0000000 )
                  (  0.0000000  0.0000000  1.0000000 )


      isym =  2     180 deg rotation - cart. axis [0,0,1]        

 cryst.   s( 2) = (     0          1         -1      )
                  (     1          0         -1      )
                  (     0          0         -1      )

 cart.    s( 2) = ( -1.0000000  0.0000000  0.0000000 )
                  (  0.0000000 -1.0000000  0.0000000 )
                  (  0.0000000  0.0000000  1.0000000 )


      isym =  3     180 deg rotation - cart. axis [0,1,0]        

 cryst.   s( 3) = (    -1          0          0      )
                  (    -1          0          1      )
                  (    -1          1          0      )

 cart.    s( 3) = ( -1.0000000  0.0000000  0.0000000 )
                  (  0.0000000  1.0000000  0.0000000 )
                  (  0.0000000  0.0000000 -1.0000000 )


      isym =  4     180 deg rotation - cart. axis [1,0,0]        

 cryst.   s( 4) = (     0         -1          1      )
                  (     0         -1          0      )
                  (     1         -1          0      )

 cart.    s( 4) = (  1.0000000  0.0000000  0.0000000 )
                  (  0.0000000 -1.0000000  0.0000000 )
                  (  0.0000000  0.0000000 -1.0000000 )


      isym =  5     180 deg rotation - cart. axis [1,1,0]        

 cryst.   s( 5) = (     0         -1          0      )    f =(  0.2500000 )
                  (    -1          0          0      )       (  0.2500000 )
                  (     0          0         -1      )       (  0.2500000 )

 cart.    s( 5) = (  0.0000000  1.0000000  0.0000000 )    f =( -0.2500000 )
                  (  1.0000000  0.0000000  0.0000000 )       (  0.2500000 )
                  (  0.0000000  0.0000000 -1.0000000 )       (  0.2500000 )


      isym =  6     180 deg rotation - cart. axis [1,-1,0]       

 cryst.   s( 6) = (    -1          0          1      )    f =(  0.2500000 )
                  (     0         -1          1      )       (  0.2500000 )
                  (     0          0          1      )       (  0.2500000 )

 cart.    s( 6) = (  0.0000000 -1.0000000  0.0000000 )    f =( -0.2500000 )
                  ( -1.0000000  0.0000000  0.0000000 )       (  0.2500000 )
                  (  0.0000000  0.0000000 -1.0000000 )       (  0.2500000 )


      isym =  7      90 deg rotation - cart. axis [0,0,-1]       

 cryst.   s( 7) = (     0          1          0      )    f =(  0.2500000 )
                  (     0          1         -1      )       (  0.2500000 )
                  (    -1          1          0      )       (  0.2500000 )

 cart.    s( 7) = (  0.0000000  1.0000000  0.0000000 )    f =( -0.2500000 )
                  ( -1.0000000  0.0000000  0.0000000 )       (  0.2500000 )
                  (  0.0000000  0.0000000  1.0000000 )       (  0.2500000 )


      isym =  8      90 deg rotation - cart. axis [0,0,1]        

 cryst.   s( 8) = (     1          0         -1      )    f =(  0.2500000 )
                  (     1          0          0      )       (  0.2500000 )
                  (     1         -1          0      )       (  0.2500000 )

 cart.    s( 8) = (  0.0000000 -1.0000000  0.0000000 )    f =( -0.2500000 )
                  (  1.0000000  0.0000000  0.0000000 )       (  0.2500000 )
                  (  0.0000000  0.0000000  1.0000000 )       (  0.2500000 )


      isym =  9     180 deg rotation - cart. axis [1,0,1]        

 cryst.   s( 9) = (    -1          0          0      )    f =(  0.2500000 )
                  (     0          0         -1      )       (  0.2500000 )
                  (     0         -1          0      )       (  0.2500000 )

 cart.    s( 9) = (  0.0000000  0.0000000  1.0000000 )    f =( -0.2500000 )
                  (  0.0000000 -1.0000000  0.0000000 )       (  0.2500000 )
                  (  1.0000000  0.0000000  0.0000000 )       (  0.2500000 )


      isym = 10     180 deg rotation - cart. axis [-1,0,1]       

 cryst.   s(10) = (     1          0          0      )    f =(  0.2500000 )
                  (     1         -1          0      )       (  0.2500000 )
                  (     1          0         -1      )       (  0.2500000 )

 cart.    s(10) = (  0.0000000  0.0000000 -1.0000000 )    f =( -0.2500000 )
                  (  0.0000000 -1.0000000  0.0000000 )       (  0.2500000 )
                  ( -1.0000000  0.0000000  0.0000000 )       (  0.2500000 )


      isym = 11      90 deg rotation - cart. axis [0,1,0]        

 cryst.   s(11) = (     0          1         -1      )    f =(  0.2500000 )
                  (    -1          1          0      )       (  0.2500000 )
                  (     0          1          0      )       (  0.2500000 )

 cart.    s(11) = (  0.0000000  0.0000000  1.0000000 )    f =( -0.2500000 )
                  (  0.0000000  1.0000000  0.0000000 )       (  0.2500000 )
                  ( -1.0000000  0.0000000  0.0000000 )       (  0.2500000 )


      isym = 12      90 deg rotation - cart. axis [0,-1,0]       

 cryst.   s(12) = (     0         -1          1      )    f =(  0.2500000 )
                  (     0          0          1      )       (  0.2500000 )
                  (    -1          0          1      )       (  0.2500000 )

 cart.    s(12) = (  0.0000000  0.0000000 -1.0000000 )    f =( -0.2500000 )
                  (  0.0000000  1.0000000  0.0000000 )       (  0.2500000 )
                  (  1.0000000  0.0000000  0.0000000 )       (  0.2500000 )


      isym = 13     180 deg rotation - cart. axis [0,1,1]        

 cryst.   s(13) = (    -1          1          0      )    f =(  0.2500000 )
                  (     0          1          0      )       (  0.2500000 )
                  (     0          1         -1      )       (  0.2500000 )

 cart.    s(13) = ( -1.0000000  0.0000000  0.0000000 )    f =( -0.2500000 )
                  (  0.0000000  0.0000000  1.0000000 )       (  0.2500000 )
                  (  0.0000000  1.0000000  0.0000000 )       (  0.2500000 )


      isym = 14     180 deg rotation - cart. axis [0,1,-1]       

 cryst.   s(14) = (     0          0         -1      )    f =(  0.2500000 )
                  (     0         -1          0      )       (  0.2500000 )
                  (    -1          0          0      )       (  0.2500000 )

 cart.    s(14) = ( -1.0000000  0.0000000  0.0000000 )    f =( -0.2500000 )
                  (  0.0000000  0.0000000 -1.0000000 )       (  0.2500000 )
                  (  0.0000000 -1.0000000  0.0000000 )       (  0.2500000 )


      isym = 15      90 deg rotation - cart. axis [-1,0,0]       

 cryst.   s(15) = (     0          0          1      )    f =(  0.2500000 )
                  (    -1          0          1      )       (  0.2500000 )
                  (     0         -1          1      )       (  0.2500000 )

 cart.    s(15) = (  1.0000000  0.0000000  0.0000000 )    f =( -0.2500000 )
                  (  0.0000000  0.0000000  1.0000000 )       (  0.2500000 )
                  (  0.0000000 -1.0000000  0.0000000 )       (  0.2500000 )


      isym = 16      90 deg rotation - cart. axis [1,0,0]        

 cryst.   s(16) = (     1         -1          0      )    f =(  0.2500000 )
                  (     1          0         -1      )       (  0.2500000 )
                  (     1          0          0      )       (  0.2500000 )

 cart.    s(16) = (  1.0000000  0.0000000  0.0000000 )    f =( -0.2500000 )
                  (  0.0000000  0.0000000 -1.0000000 )       (  0.2500000 )
                  (  0.0000000  1.0000000  0.0000000 )       (  0.2500000 )


      isym = 17     120 deg rotation - cart. axis [-1,-1,-1]     

 cryst.   s(17) = (    -1          0          1      )
                  (    -1          1          0      )
                  (    -1          0          0      )

 cart.    s(17) = (  0.0000000  1.0000000  0.0000000 )
                  (  0.0000000  0.0000000  1.0000000 )
                  (  1.0000000  0.0000000  0.0000000 )


      isym = 18     120 deg rotation - cart. axis [-1,1,1]       

 cryst.   s(18) = (     0          1          0      )
                  (     0          0          1      )
                  (     1          0          0      )

 cart.    s(18) = (  0.0000000 -1.0000000  0.0000000 )
                  (  0.0000000  0.0000000  1.0000000 )
                  ( -1.0000000  0.0000000  0.0000000 )


      isym = 19     120 deg rotation - cart. axis [1,1,-1]       

 cryst.   s(19) = (     1          0         -1      )
                  (     0          0         -1      )
                  (     0          1         -1      )

 cart.    s(19) = (  0.0000000  1.0000000  0.0000000 )
                  (  0.0000000  0.0000000 -1.0000000 )
                  ( -1.0000000  0.0000000  0.0000000 )


      isym = 20     120 deg rotation - cart. axis [1,-1,1]       

 cryst.   s(20) = (     0         -1          0      )
                  (     1         -1          0      )
                  (     0         -1          1      )

 cart.    s(20) = (  0.0000000 -1.0000000  0.0000000 )
                  (  0.0000000  0.0000000 -1.0000000 )
                  (  1.0000000  0.0000000  0.0000000 )


      isym = 21     120 deg rotation - cart. axis [1,1,1]        

 cryst.   s(21) = (     0          0         -1      )
                  (     0          1         -1      )
                  (     1          0         -1      )

 cart.    s(21) = (  0.0000000  0.0000000  1.0000000 )
                  (  1.0000000  0.0000000  0.0000000 )
                  (  0.0000000  1.0000000  0.0000000 )


      isym = 22     120 deg rotation - cart. axis [-1,1,-1]      

 cryst.   s(22) = (    -1          1          0      )
                  (    -1          0          0      )
                  (    -1          0          1      )

 cart.    s(22) = (  0.0000000  0.0000000  1.0000000 )
                  ( -1.0000000  0.0000000  0.0000000 )
                  (  0.0000000 -1.0000000  0.0000000 )


      isym = 23     120 deg rotation - cart. axis [1,-1,-1]      

 cryst.   s(23) = (     0          0          1      )
                  (     1          0          0      )
                  (     0          1          0      )

 cart.    s(23) = (  0.0000000  0.0000000 -1.0000000 )
                  ( -1.0000000  0.0000000  0.0000000 )
                  (  0.0000000  1.0000000  0.0000000 )


      isym = 24     120 deg rotation - cart. axis [-1,-1,1]      

 cryst.   s(24) = (     1         -1          0      )
                  (     0         -1          1      )
                  (     0         -1          0      )

 cart.    s(24) = (  0.0000000  0.0000000 -1.0000000 )
                  (  1.0000000  0.0000000  0.0000000 )
                  (  0.0000000 -1.0000000  0.0000000 )


      isym = 25     inversion                                    

 cryst.   s(25) = (    -1          0          0      )    f =(  0.2500000 )
                  (     0         -1          0      )       (  0.2500000 )
                  (     0          0         -1      )       (  0.2500000 )

 cart.    s(25) = ( -1.0000000  0.0000000  0.0000000 )    f =( -0.2500000 )
                  (  0.0000000 -1.0000000  0.0000000 )       (  0.2500000 )
                  (  0.0000000  0.0000000 -1.0000000 )       (  0.2500000 )


      isym = 26     inv. 180 deg rotation - cart. axis [0,0,1]   

 cryst.   s(26) = (     0         -1          1      )    f =(  0.2500000 )
                  (    -1          0          1      )       (  0.2500000 )
                  (     0          0          1      )       (  0.2500000 )

 cart.    s(26) = (  1.0000000  0.0000000  0.0000000 )    f =( -0.2500000 )
                  (  0.0000000  1.0000000  0.0000000 )       (  0.2500000 )
                  (  0.0000000  0.0000000 -1.0000000 )       (  0.2500000 )


      isym = 27     inv. 180 deg rotation - cart. axis [0,1,0]   

 cryst.   s(27) = (     1          0          0      )    f =(  0.2500000 )
                  (     1          0         -1      )       (  0.2500000 )
                  (     1         -1          0      )       (  0.2500000 )

 cart.    s(27) = (  1.0000000  0.0000000  0.0000000 )    f =( -0.2500000 )
                  (  0.0000000 -1.0000000  0.0000000 )       (  0.2500000 )
                  (  0.0000000  0.0000000  1.0000000 )       (  0.2500000 )


      isym = 28     inv. 180 deg rotation - cart. axis [1,0,0]   

 cryst.   s(28) = (     0          1         -1      )    f =(  0.2500000 )
                  (     0          1          0      )       (  0.2500000 )
                  (    -1          1          0      )       (  0.2500000 )

 cart.    s(28) = ( -1.0000000  0.0000000  0.0000000 )    f =( -0.2500000 )
                  (  0.0000000  1.0000000  0.0000000 )       (  0.2500000 )
                  (  0.0000000  0.0000000  1.0000000 )       (  0.2500000 )


      isym = 29     inv. 180 deg rotation - cart. axis [1,1,0]   

 cryst.   s(29) = (     0          1          0      )
                  (     1          0          0      )
                  (     0          0          1      )

 cart.    s(29) = (  0.0000000 -1.0000000  0.0000000 )
                  ( -1.0000000  0.0000000  0.0000000 )
                  (  0.0000000  0.0000000  1.0000000 )


      isym = 30     inv. 180 deg rotation - cart. axis [1,-1,0]  

 cryst.   s(30) = (     1          0         -1      )
                  (     0          1         -1      )
                  (     0          0         -1      )

 cart.    s(30) = (  0.0000000  1.0000000  0.0000000 )
                  (  1.0000000  0.0000000  0.0000000 )
                  (  0.0000000  0.0000000  1.0000000 )


      isym = 31     inv.  90 deg rotation - cart. axis [0,0,-1]  

 cryst.   s(31) = (     0         -1          0      )
                  (     0         -1          1      )
                  (     1         -1          0      )

 cart.    s(31) = (  0.0000000 -1.0000000  0.0000000 )
                  (  1.0000000  0.0000000  0.0000000 )
                  (  0.0000000  0.0000000 -1.0000000 )


      isym = 32     inv.  90 deg rotation - cart. axis [0,0,1]   

 cryst.   s(32) = (    -1          0          1      )
                  (    -1          0          0      )
                  (    -1          1          0      )

 cart.    s(32) = (  0.0000000  1.0000000  0.0000000 )
                  ( -1.0000000  0.0000000  0.0000000 )
                  (  0.0000000  0.0000000 -1.0000000 )


      isym = 33     inv. 180 deg rotation - cart. axis [1,0,1]   

 cryst.   s(33) = (     1          0          0      )
                  (     0          0          1      )
                  (     0          1          0      )

 cart.    s(33) = (  0.0000000  0.0000000 -1.0000000 )
                  (  0.0000000  1.0000000  0.0000000 )
                  ( -1.0000000  0.0000000  0.0000000 )


      isym = 34     inv. 180 deg rotation - cart. axis [-1,0,1]  

 cryst.   s(34) = (    -1          0          0      )
                  (    -1          1          0      )
                  (    -1          0          1      )

 cart.    s(34) = (  0.0000000  0.0000000  1.0000000 )
                  (  0.0000000  1.0000000  0.0000000 )
                  (  1.0000000  0.0000000  0.0000000 )


      isym = 35     inv.  90 deg rotation - cart. axis [0,1,0]   

 cryst.   s(35) = (     0         -1          1      )
                  (     1         -1          0      )
                  (     0         -1          0      )

 cart.    s(35) = (  0.0000000  0.0000000 -1.0000000 )
                  (  0.0000000 -1.0000000  0.0000000 )
                  (  1.0000000  0.0000000  0.0000000 )


      isym = 36     inv.  90 deg rotation - cart. axis [0,-1,0]  

 cryst.   s(36) = (     0          1         -1      )
                  (     0          0         -1      )
                  (     1          0         -1      )

 cart.    s(36) = (  0.0000000  0.0000000  1.0000000 )
                  (  0.0000000 -1.0000000  0.0000000 )
                  ( -1.0000000  0.0000000  0.0000000 )


      isym = 37     inv. 180 deg rotation - cart. axis [0,1,1]   

 cryst.   s(37) = (     1         -1          0      )
                  (     0         -1          0      )
                  (     0         -1          1      )

 cart.    s(37) = (  1.0000000  0.0000000  0.0000000 )
                  (  0.0000000  0.0000000 -1.0000000 )
                  (  0.0000000 -1.0000000  0.0000000 )


      isym = 38     inv. 180 deg rotation - cart. axis [0,1,-1]  

 cryst.   s(38) = (     0          0          1      )
                  (     0          1          0      )
                  (     1          0          0      )

 cart.    s(38) = (  1.0000000  0.0000000  0.0000000 )
                  (  0.0000000  0.0000000  1.0000000 )
                  (  0.0000000  1.0000000  0.0000000 )


      isym = 39     inv.  90 deg rotation - cart. axis [-1,0,0]  

 cryst.   s(39) = (     0          0         -1      )
                  (     1          0         -1      )
                  (     0          1         -1      )

 cart.    s(39) = ( -1.0000000  0.0000000  0.0000000 )
                  (  0.0000000  0.0000000 -1.0000000 )
                  (  0.0000000  1.0000000  0.0000000 )


      isym = 40     inv.  90 deg rotation - cart. axis [1,0,0]   

 cryst.   s(40) = (    -1          1          0      )
                  (    -1          0          1      )
                  (    -1          0          0      )

 cart.    s(40) = ( -1.0000000  0.0000000  0.0000000 )
                  (  0.0000000  0.0000000  1.0000000 )
                  (  0.0000000 -1.0000000  0.0000000 )


      isym = 41     inv. 120 deg rotation - cart. axis [-1,-1,-1]

 cryst.   s(41) = (     1          0         -1      )    f =(  0.2500000 )
                  (     1         -1          0      )       (  0.2500000 )
                  (     1          0          0      )       (  0.2500000 )

 cart.    s(41) = (  0.0000000 -1.0000000  0.0000000 )    f =( -0.2500000 )
                  (  0.0000000  0.0000000 -1.0000000 )       (  0.2500000 )
                  ( -1.0000000  0.0000000  0.0000000 )       (  0.2500000 )


      isym = 42     inv. 120 deg rotation - cart. axis [-1,1,1]  

 cryst.   s(42) = (     0         -1          0      )    f =(  0.2500000 )
                  (     0          0         -1      )       (  0.2500000 )
                  (    -1          0          0      )       (  0.2500000 )

 cart.    s(42) = (  0.0000000  1.0000000  0.0000000 )    f =( -0.2500000 )
                  (  0.0000000  0.0000000 -1.0000000 )       (  0.2500000 )
                  (  1.0000000  0.0000000  0.0000000 )       (  0.2500000 )


      isym = 43     inv. 120 deg rotation - cart. axis [1,1,-1]  

 cryst.   s(43) = (    -1          0          1      )    f =(  0.2500000 )
                  (     0          0          1      )       (  0.2500000 )
                  (     0         -1          1      )       (  0.2500000 )

 cart.    s(43) = (  0.0000000 -1.0000000  0.0000000 )    f =( -0.2500000 )
                  (  0.0000000  0.0000000  1.0000000 )       (  0.2500000 )
                  (  1.0000000  0.0000000  0.0000000 )       (  0.2500000 )


      isym = 44     inv. 120 deg rotation - cart. axis [1,-1,1]  

 cryst.   s(44) = (     0          1          0      )    f =(  0.2500000 )
                  (    -1          1          0      )       (  0.2500000 )
                  (     0          1         -1      )       (  0.2500000 )

 cart.    s(44) = (  0.0000000  1.0000000  0.0000000 )    f =( -0.2500000 )
                  (  0.0000000  0.0000000  1.0000000 )       (  0.2500000 )
                  ( -1.0000000  0.0000000  0.0000000 )       (  0.2500000 )


      isym = 45     inv. 120 deg rotation - cart. axis [1,1,1]   

 cryst.   s(45) = (     0          0          1      )    f =(  0.2500000 )
                  (     0         -1          1      )       (  0.2500000 )
                  (    -1          0          1      )       (  0.2500000 )

 cart.    s(45) = (  0.0000000  0.0000000 -1.0000000 )    f =( -0.2500000 )
                  ( -1.0000000  0.0000000  0.0000000 )       (  0.2500000 )
                  (  0.0000000 -1.0000000  0.0000000 )       (  0.2500000 )


      isym = 46     inv. 120 deg rotation - cart. axis [-1,1,-1] 

 cryst.   s(46) = (     1         -1          0      )    f =(  0.2500000 )
                  (     1          0          0      )       (  0.2500000 )
                  (     1          0         -1      )       (  0.2500000 )

 cart.    s(46) = (  0.0000000  0.0000000 -1.0000000 )    f =( -0.2500000 )
                  (  1.0000000  0.0000000  0.0000000 )       (  0.2500000 )
                  (  0.0000000  1.0000000  0.0000000 )       (  0.2500000 )


      isym = 47     inv. 120 deg rotation - cart. axis [1,-1,-1] 

 cryst.   s(47) = (     0          0         -1      )    f =(  0.2500000 )
                  (    -1          0          0      )       (  0.2500000 )
                  (     0         -1          0      )       (  0.2500000 )

 cart.    s(47) = (  0.0000000  0.0000000  1.0000000 )    f =( -0.2500000 )
                  (  1.0000000  0.0000000  0.0000000 )       (  0.2500000 )
                  (  0.0000000 -1.0000000  0.0000000 )       (  0.2500000 )


      isym = 48     inv. 120 deg rotation - cart. axis [-1,-1,1] 

 cryst.   s(48) = (    -1          1          0      )    f =(  0.2500000 )
                  (     0          1         -1      )       (  0.2500000 )
                  (     0          1          0      )       (  0.2500000 )

 cart.    s(48) = (  0.0000000  0.0000000  1.0000000 )    f =( -0.2500000 )
                  ( -1.0000000  0.0000000  0.0000000 )       (  0.2500000 )
                  (  0.0000000  1.0000000  0.0000000 )       (  0.2500000 )


     point group O_h (m-3m) 
     there are 10 classes
     the character table:

       E     8C3   3C2   6C4   6C2'  i     8S6   3s_h  6S4   6s_d 
A_1g   1.00  1.00  1.00  1.00  1.00  1.00  1.00  1.00  1.00  1.00
A_2g   1.00  1.00  1.00 -1.00 -1.00  1.00  1.00  1.00 -1.00 -1.00
E_g    2.00 -1.00  2.00  0.00  0.00  2.00 -1.00  2.00  0.00  0.00
T_1g   3.00  0.00 -1.00  1.00 -1.00  3.00  0.00 -1.00  1.00 -1.00
T_2g   3.00  0.00 -1.00 -1.00  1.00  3.00  0.00 -1.00 -1.00  1.00
A_1u   1.00  1.00  1.00  1.00  1.00 -1.00 -1.00 -1.00 -1.00 -1.00
A_2u   1.00  1.00  1.00 -1.00 -1.00 -1.00 -1.00 -1.00  1.00  1.00
E_u    2.00 -1.00  2.00  0.00  0.00 -2.00  1.00 -2.00  0.00  0.00
T_1u   3.00  0.00 -1.00  1.00 -1.00 -3.00  0.00  1.00 -1.00  1.00
T_2u   3.00  0.00 -1.00 -1.00  1.00 -3.00  0.00  1.00  1.00 -1.00

     the symmetry operations in each class and the name of the first element:

     E        1
          identity                                               
     8C3     17   19   20   18   24   21   22   23
          120 deg rotation - cart. axis [-1,-1,-1]               
     3C2      2    4    3
          180 deg rotation - cart. axis [0,0,1]                  
     6C4      7    8   15   16   12   11
           90 deg rotation - cart. axis [0,0,-1]                 
     6C2'     5    6   14   13   10    9
          180 deg rotation - cart. axis [1,1,0]                  
     i       25
          inversion                                              
     8S6     41   43   44   42   48   45   46   47
          inv. 120 deg rotation - cart. axis [-1,-1,-1]          
     3s_h    26   28   27
          inv. 180 deg rotation - cart. axis [0,0,1]             
     6S4     31   32   39   40   36   35
          inv.  90 deg rotation - cart. axis [0,0,-1]            
     6s_d    29   30   38   37   34   33
          inv. 180 deg rotation - cart. axis [1,1,0]             

   Cartesian axes

     site n.     atom                  positions (alat units)
         1           Si  tau(   1) = (   0.0000000   0.0000000   0.0000000  )
         2           Si  tau(   2) = (   0.2500000   0.2500000   0.2500000  )

   Crystallographic axes

     site n.     atom                  positions (cryst. coord.)
         1           Si  tau(   1) = (  0.0000000  0.0000000  0.0000000  )
         2           Si  tau(   2) = ( -0.2500000  0.7500000 -0.2500000  )

     number of k points=   110
                       cart. coord. in units 2pi/alat
        k(    1) = (  -0.0500000   0.0500000   0.0500000), wk =   0.0040000
        k(    2) = (  -0.1500000   0.1500000  -0.0500000), wk =   0.0120000
        k(    3) = (  -0.2500000   0.2500000  -0.1500000), wk =   0.0120000
        k(    4) = (  -0.3500000   0.3500000  -0.2500000), wk =   0.0120000
        k(    5) = (  -0.4500000   0.4500000  -0.3500000), wk =   0.0120000
        k(    6) = (   0.4500000  -0.4500000   0.5500000), wk =   0.0120000
        k(    7) = (   0.3500000  -0.3500000   0.4500000), wk =   0.0120000
        k(    8) = (   0.2500000  -0.2500000   0.3500000), wk =   0.0120000
        k(    9) = (   0.1500000  -0.1500000   0.2500000), wk =   0.0120000
        k(   10) = (   0.0500000  -0.0500000   0.1500000), wk =   0.0120000
        k(   11) = (  -0.0500000   0.2500000   0.0500000), wk =   0.0120000
        k(   12) = (  -0.1500000   0.3500000  -0.0500000), wk =   0.0240000
        k(   13) = (  -0.2500000   0.4500000  -0.1500000), wk =   0.0240000
        k(   14) = (  -0.3500000   0.5500000  -0.2500000), wk =   0.0240000
        k(   15) = (   0.5500000  -0.3500000   0.6500000), wk =   0.0240000
        k(   16) = (   0.4500000  -0.2500000   0.5500000), wk =   0.0240000
        k(   17) = (   0.3500000  -0.1500000   0.4500000), wk =   0.0240000
        k(   18) = (   0.2500000  -0.0500000   0.3500000), wk =   0.0240000
        k(   19) = (   0.1500000   0.0500000   0.2500000), wk =   0.0240000
        k(   20) = (  -0.0500000   0.4500000   0.0500000), wk =   0.0120000
        k(   21) = (  -0.1500000   0.5500000  -0.0500000), wk =   0.0240000
        k(   22) = (  -0.2500000   0.6500000  -0.1500000), wk =   0.0240000
        k(   23) = (   0.6500000  -0.2500000   0.7500000), wk =   0.0240000
        k(   24) = (   0.5500000  -0.1500000   0.6500000), wk =   0.0240000
        k(   25) = (   0.4500000  -0.0500000   0.5500000), wk =   0.0240000
        k(   26) = (   0.3500000   0.0500000   0.4500000), wk =   0.0240000
        k(   27) = (   0.2500000   0.1500000   0.3500000), wk =   0.0240000
        k(   28) = (  -0.0500000   0.6500000   0.0500000), wk =   0.0120000
        k(   29) = (  -0.1500000   0.7500000  -0.0500000), wk =   0.0240000
        k(   30) = (   0.7500000  -0.1500000   0.8500000), wk =   0.0240000
        k(   31) = (   0.6500000  -0.0500000   0.7500000), wk =   0.0240000
        k(   32) = (   0.5500000   0.0500000   0.6500000), wk =   0.0240000
        k(   33) = (   0.4500000   0.1500000   0.5500000), wk =   0.0240000
        k(   34) = (   0.3500000   0.2500000   0.4500000), wk =   0.0240000
        k(   35) = (  -0.0500000   0.8500000   0.0500000), wk =   0.0120000
        k(   36) = (   0.8500000  -0.0500000   0.9500000), wk =   0.0240000
        k(   37) = (   0.7500000   0.0500000   0.8500000), wk =   0.0240000
        k(   38) = (   0.6500000   0.1500000   0.7500000), wk =   0.0240000
        k(   39) = (   0.5500000   0.2500000   0.6500000), wk =   0.0240000
        k(   40) = (   0.4500000   0.3500000   0.5500000), wk =   0.0240000
        k(   41) = (  -0.0500000  -0.9500000   0.0500000), wk =   0.0120000
        k(   42) = (  -0.1500000  -0.8500000  -0.0500000), wk =   0.0240000
        k(   43) = (  -0.2500000  -0.7500000  -0.1500000), wk =   0.0240000
        k(   44) = (  -0.3500000  -0.6500000  -0.2500000), wk =   0.0240000
        k(   45) = (  -0.0500000  -0.7500000   0.0500000), wk =   0.0120000
        k(   46) = (  -0.1500000  -0.6500000  -0.0500000), wk =   0.0240000
        k(   47) = (  -0.2500000  -0.5500000  -0.1500000), wk =   0.0240000
        k(   48) = (  -0.0500000  -0.5500000   0.0500000), wk =   0.0120000
        k(   49) = (  -0.1500000  -0.4500000  -0.0500000), wk =   0.0240000
        k(   50) = (  -0.0500000  -0.3500000   0.0500000), wk =   0.0120000
        k(   51) = (  -0.1500000   0.1500000   0.1500000), wk =   0.0040000
        k(   52) = (  -0.2500000   0.2500000   0.0500000), wk =   0.0120000
        k(   53) = (  -0.3500000   0.3500000  -0.0500000), wk =   0.0120000
        k(   54) = (  -0.4500000   0.4500000  -0.1500000), wk =   0.0120000
        k(   55) = (   0.4500000  -0.4500000   0.7500000), wk =   0.0120000
        k(   56) = (   0.3500000  -0.3500000   0.6500000), wk =   0.0120000
        k(   57) = (   0.2500000  -0.2500000   0.5500000), wk =   0.0120000
        k(   58) = (   0.1500000  -0.1500000   0.4500000), wk =   0.0120000
        k(   59) = (  -0.1500000   0.3500000   0.1500000), wk =   0.0120000
        k(   60) = (  -0.2500000   0.4500000   0.0500000), wk =   0.0240000
        k(   61) = (  -0.3500000   0.5500000  -0.0500000), wk =   0.0240000
        k(   62) = (   0.5500000  -0.3500000   0.8500000), wk =   0.0240000
        k(   63) = (   0.4500000  -0.2500000   0.7500000), wk =   0.0240000
        k(   64) = (   0.3500000  -0.1500000   0.6500000), wk =   0.0240000
        k(   65) = (   0.2500000  -0.0500000   0.5500000), wk =   0.0240000
        k(   66) = (  -0.1500000   0.5500000   0.1500000), wk =   0.0120000
        k(   67) = (  -0.2500000   0.6500000   0.0500000), wk =   0.0240000
        k(   68) = (   0.6500000  -0.2500000   0.9500000), wk =   0.0240000
        k(   69) = (   0.5500000  -0.1500000   0.8500000), wk =   0.0240000
        k(   70) = (   0.4500000  -0.0500000   0.7500000), wk =   0.0240000
        k(   71) = (   0.3500000   0.0500000   0.6500000), wk =   0.0240000
        k(   72) = (  -0.1500000   0.7500000   0.1500000), wk =   0.0120000
        k(   73) = (   0.7500000  -0.1500000   1.0500000), wk =   0.0240000
        k(   74) = (   0.6500000  -0.0500000   0.9500000), wk =   0.0240000
        k(   75) = (   0.5500000   0.0500000   0.8500000), wk =   0.0240000
        k(   76) = (   0.4500000   0.1500000   0.7500000), wk =   0.0240000
        k(   77) = (  -0.1500000  -1.0500000   0.1500000), wk =   0.0120000
        k(   78) = (  -0.2500000  -0.9500000   0.0500000), wk =   0.0240000
        k(   79) = (  -0.3500000  -0.8500000  -0.0500000), wk =   0.0240000
        k(   80) = (  -0.1500000  -0.8500000   0.1500000), wk =   0.0120000
        k(   81) = (  -0.2500000  -0.7500000   0.0500000), wk =   0.0240000
        k(   82) = (  -0.1500000  -0.6500000   0.1500000), wk =   0.0120000
        k(   83) = (  -0.2500000   0.2500000   0.2500000), wk =   0.0040000
        k(   84) = (  -0.3500000   0.3500000   0.1500000), wk =   0.0120000
        k(   85) = (  -0.4500000   0.4500000   0.0500000), wk =   0.0120000
        k(   86) = (   0.4500000  -0.4500000   0.9500000), wk =   0.0120000
        k(   87) = (   0.3500000  -0.3500000   0.8500000), wk =   0.0120000
        k(   88) = (   0.2500000  -0.2500000   0.7500000), wk =   0.0120000
        k(   89) = (  -0.2500000   0.4500000   0.2500000), wk =   0.0120000
        k(   90) = (  -0.3500000   0.5500000   0.1500000), wk =   0.0240000
        k(   91) = (   0.5500000  -0.3500000   1.0500000), wk =   0.0240000
        k(   92) = (   0.4500000  -0.2500000   0.9500000), wk =   0.0240000
        k(   93) = (   0.3500000  -0.1500000   0.8500000), wk =   0.0240000
        k(   94) = (  -0.2500000   0.6500000   0.2500000), wk =   0.0120000
        k(   95) = (   0.6500000  -0.2500000   1.1500000), wk =   0.0240000
        k(   96) = (   0.5500000  -0.1500000   1.0500000), wk =   0.0240000
        k(   97) = (   0.4500000  -0.0500000   0.9500000), wk =   0.0240000
        k(   98) = (  -0.2500000  -1.1500000   0.2500000), wk =   0.0120000
        k(   99) = (  -0.3500000  -1.0500000   0.1500000), wk =   0.0240000
        k(  100) = (  -0.2500000  -0.9500000   0.2500000), wk =   0.0120000
        k(  101) = (  -0.3500000   0.3500000   0.3500000), wk =   0.0040000
        k(  102) = (  -0.4500000   0.4500000   0.2500000), wk =   0.0120000
        k(  103) = (   0.4500000  -0.4500000   1.1500000), wk =   0.0120000
        k(  104) = (   0.3500000  -0.3500000   1.0500000), wk =   0.0120000
        k(  105) = (  -0.3500000   0.5500000   0.3500000), wk =   0.0120000
        k(  106) = (   0.5500000  -0.3500000   1.2500000), wk =   0.0240000
        k(  107) = (   0.4500000  -0.2500000   1.1500000), wk =   0.0240000
        k(  108) = (  -0.3500000  -1.2500000   0.3500000), wk =   0.0120000
        k(  109) = (  -0.4500000   0.4500000   0.4500000), wk =   0.0040000
        k(  110) = (   0.4500000  -0.4500000   1.3500000), wk =   0.0120000

                       cryst. coord.
        k(    1) = (   0.0500000   0.0500000   0.0500000), wk =   0.0040000
        k(    2) = (   0.0500000   0.0500000   0.1500000), wk =   0.0120000
        k(    3) = (   0.0500000   0.0500000   0.2500000), wk =   0.0120000
        k(    4) = (   0.0500000   0.0500000   0.3500000), wk =   0.0120000
        k(    5) = (   0.0500000   0.0500000   0.4500000), wk =   0.0120000
        k(    6) = (   0.0500000   0.0500000  -0.4500000), wk =   0.0120000
        k(    7) = (   0.0500000   0.0500000  -0.3500000), wk =   0.0120000
        k(    8) = (   0.0500000   0.0500000  -0.2500000), wk =   0.0120000
        k(    9) = (   0.0500000   0.0500000  -0.1500000), wk =   0.0120000
        k(   10) = (   0.0500000   0.0500000  -0.0500000), wk =   0.0120000
        k(   11) = (   0.0500000   0.1500000   0.1500000), wk =   0.0120000
        k(   12) = (   0.0500000   0.1500000   0.2500000), wk =   0.0240000
        k(   13) = (   0.0500000   0.1500000   0.3500000), wk =   0.0240000
        k(   14) = (   0.0500000   0.1500000   0.4500000), wk =   0.0240000
        k(   15) = (   0.0500000   0.1500000  -0.4500000), wk =   0.0240000
        k(   16) = (   0.0500000   0.1500000  -0.3500000), wk =   0.0240000
        k(   17) = (   0.0500000   0.1500000  -0.2500000), wk =   0.0240000
        k(   18) = (   0.0500000   0.1500000  -0.1500000), wk =   0.0240000
        k(   19) = (   0.0500000   0.1500000  -0.0500000), wk =   0.0240000
        k(   20) = (   0.0500000   0.2500000   0.2500000), wk =   0.0120000
        k(   21) = (   0.0500000   0.2500000   0.3500000), wk =   0.0240000
        k(   22) = (   0.0500000   0.2500000   0.4500000), wk =   0.0240000
        k(   23) = (   0.0500000   0.2500000  -0.4500000), wk =   0.0240000
        k(   24) = (   0.0500000   0.2500000  -0.3500000), wk =   0.0240000
        k(   25) = (   0.0500000   0.2500000  -0.2500000), wk =   0.0240000
        k(   26) = (   0.0500000   0.2500000  -0.1500000), wk =   0.0240000
        k(   27) = (   0.0500000   0.2500000  -0.0500000), wk =   0.0240000
        k(   28) = (   0.0500000   0.3500000   0.3500000), wk =   0.0120000
        k(   29) = (   0.0500000   0.3500000   0.4500000), wk =   0.0240000
        k(   30) = (   0.0500000   0.3500000  -0.4500000), wk =   0.0240000
        k(   31) = (   0.0500000   0.3500000  -0.3500000), wk =   0.0240000
        k(   32) = (   0.0500000   0.3500000  -0.2500000), wk =   0.0240000
        k(   33) = (   0.0500000   0.3500000  -0.1500000), wk =   0.0240000
        k(   34) = (   0.0500000   0.3500000  -0.0500000), wk =   0.0240000
        k(   35) = (   0.0500000   0.4500000   0.4500000), wk =   0.0120000
        k(   36) = (   0.0500000   0.4500000  -0.4500000), wk =   0.0240000
        k(   37) = (   0.0500000   0.4500000  -0.3500000), wk =   0.0240000
        k(   38) = (   0.0500000   0.4500000  -0.2500000), wk =   0.0240000
        k(   39) = (   0.0500000   0.4500000  -0.1500000), wk =   0.0240000
        k(   40) = (   0.0500000   0.4500000  -0.0500000), wk =   0.0240000
        k(   41) = (   0.0500000  -0.4500000  -0.4500000), wk =   0.0120000
        k(   42) = (   0.0500000  -0.4500000  -0.3500000), wk =   0.0240000
        k(   43) = (   0.0500000  -0.4500000  -0.2500000), wk =   0.0240000
        k(   44) = (   0.0500000  -0.4500000  -0.1500000), wk =   0.0240000
        k(   45) = (   0.0500000  -0.3500000  -0.3500000), wk =   0.0120000
        k(   46) = (   0.0500000  -0.3500000  -0.2500000), wk =   0.0240000
        k(   47) = (   0.0500000  -0.3500000  -0.1500000), wk =   0.0240000
        k(   48) = (   0.0500000  -0.2500000  -0.2500000), wk =   0.0120000
        k(   49) = (   0.0500000  -0.2500000  -0.1500000), wk =   0.0240000
        k(   50) = (   0.0500000  -0.1500000  -0.1500000), wk =   0.0120000
        k(   51) = (   0.1500000   0.1500000   0.1500000), wk =   0.0040000
        k(   52) = (   0.1500000   0.1500000   0.2500000), wk =   0.0120000
        k(   53) = (   0.1500000   0.1500000   0.3500000), wk =   0.0120000
        k(   54) = (   0.1500000   0.1500000   0.4500000), wk =   0.0120000
        k(   55) = (   0.1500000   0.1500000  -0.4500000), wk =   0.0120000
        k(   56) = (   0.1500000   0.1500000  -0.3500000), wk =   0.0120000
        k(   57) = (   0.1500000   0.1500000  -0.2500000), wk =   0.0120000
        k(   58) = (   0.1500000   0.1500000  -0.1500000), wk =   0.0120000
        k(   59) = (   0.1500000   0.2500000   0.2500000), wk =   0.0120000
        k(   60) = (   0.1500000   0.2500000   0.3500000), wk =   0.0240000
        k(   61) = (   0.1500000   0.2500000   0.4500000), wk =   0.0240000
        k(   62) = (   0.1500000   0.2500000  -0.4500000), wk =   0.0240000
        k(   63) = (   0.1500000   0.2500000  -0.3500000), wk =   0.0240000
        k(   64) = (   0.1500000   0.2500000  -0.2500000), wk =   0.0240000
        k(   65) = (   0.1500000   0.2500000  -0.1500000), wk =   0.0240000
        k(   66) = (   0.1500000   0.3500000   0.3500000), wk =   0.0120000
        k(   67) = (   0.1500000   0.3500000   0.4500000), wk =   0.0240000
        k(   68) = (   0.1500000   0.3500000  -0.4500000), wk =   0.0240000
        k(   69) = (   0.1500000   0.3500000  -0.3500000), wk =   0.0240000
        k(   70) = (   0.1500000   0.3500000  -0.2500000), wk =   0.0240000
        k(   71) = (   0.1500000   0.3500000  -0.1500000), wk =   0.0240000
        k(   72) = (   0.1500000   0.4500000   0.4500000), wk =   0.0120000
        k(   73) = (   0.1500000   0.4500000  -0.4500000), wk =   0.0240000
        k(   74) = (   0.1500000   0.4500000  -0.3500000), wk =   0.0240000
        k(   75) = (   0.1500000   0.4500000  -0.2500000), wk =   0.0240000
        k(   76) = (   0.1500000   0.4500000  -0.1500000), wk =   0.0240000
        k(   77) = (   0.1500000  -0.4500000  -0.4500000), wk =   0.0120000
        k(   78) = (   0.1500000  -0.4500000  -0.3500000), wk =   0.0240000
        k(   79) = (   0.1500000  -0.4500000  -0.2500000), wk =   0.0240000
        k(   80) = (   0.1500000  -0.3500000  -0.3500000), wk =   0.0120000
        k(   81) = (   0.1500000  -0.3500000  -0.2500000), wk =   0.0240000
        k(   82) = (   0.1500000  -0.2500000  -0.2500000), wk =   0.0120000
        k(   83) = (   0.2500000   0.2500000   0.2500000), wk =   0.0040000
        k(   84) = (   0.2500000   0.2500000   0.3500000), wk =   0.0120000
        k(   85) = (   0.2500000   0.2500000   0.4500000), wk =   0.0120000
        k(   86) = (   0.2500000   0.2500000  -0.4500000), wk =   0.0120000
        k(   87) = (   0.2500000   0.2500000  -0.3500000), wk =   0.0120000
        k(   88) = (   0.2500000   0.2500000  -0.2500000), wk =   0.0120000
        k(   89) = (   0.2500000   0.3500000   0.3500000), wk =   0.0120000
        k(   90) = (   0.2500000   0.3500000   0.4500000), wk =   0.0240000
        k(   91) = (   0.2500000   0.3500000  -0.4500000), wk =   0.0240000
        k(   92) = (   0.2500000   0.3500000  -0.3500000), wk =   0.0240000
        k(   93) = (   0.2500000   0.3500000  -0.2500000), wk =   0.0240000
        k(   94) = (   0.2500000   0.4500000   0.4500000), wk =   0.0120000
        k(   95) = (   0.2500000   0.4500000  -0.4500000), wk =   0.0240000
        k(   96) = (   0.2500000   0.4500000  -0.3500000), wk =   0.0240000
        k(   97) = (   0.2500000   0.4500000  -0.2500000), wk =   0.0240000
        k(   98) = (   0.2500000  -0.4500000  -0.4500000), wk =   0.0120000
        k(   99) = (   0.2500000  -0.4500000  -0.3500000), wk =   0.0240000
        k(  100) = (   0.2500000  -0.3500000  -0.3500000), wk =   0.0120000
        k(  101) = (   0.3500000   0.3500000   0.3500000), wk =   0.0040000
        k(  102) = (   0.3500000   0.3500000   0.4500000), wk =   0.0120000
        k(  103) = (   0.3500000   0.3500000  -0.4500000), wk =   0.0120000
        k(  104) = (   0.3500000   0.3500000  -0.3500000), wk =   0.0120000
        k(  105) = (   0.3500000   0.4500000   0.4500000), wk =   0.0120000
        k(  106) = (   0.3500000   0.4500000  -0.4500000), wk =   0.0240000
        k(  107) = (   0.3500000   0.4500000  -0.3500000), wk =   0.0240000
        k(  108) = (   0.3500000  -0.4500000  -0.4500000), wk =   0.0120000
        k(  109) = (   0.4500000   0.4500000   0.4500000), wk =   0.0040000
        k(  110) = (   0.4500000   0.4500000  -0.4500000), wk =   0.0120000

     Dense  grid:     7391 G-vectors     FFT dimensions: (  32,  32,  32)

     Dynamical RAM for                 wfc:       0.42 MB

     Dynamical RAM for     wfc (w. buffer):       0.42 MB

     Dynamical RAM for           str. fact:       0.11 MB

     Dynamical RAM for           local pot:       0.00 MB

     Dynamical RAM for          nlocal pot:       0.14 MB

     Dynamical RAM for                qrad:       0.26 MB

     Dynamical RAM for          rho,v,vnew:       1.09 MB

     Dynamical RAM for           G-vectors:       0.48 MB

     Dynamical RAM for          h,s,v(r/c):       0.66 MB

     Dynamical RAM for          <psi|beta>:       0.00 MB

     Dynamical RAM for                 psi:       1.70 MB

     Dynamical RAM for                hpsi:       1.70 MB

     Dynamical RAM for      wfcinit/wfcrot:       0.87 MB

     Estimated static dynamical RAM per process >       3.99 MB

     Estimated max dynamical RAM per process >       8.05 MB

     The potential is recalculated from file :
     ./tmp/Si_bulk.save/charge-density

     Starting wfcs are    8 randomized atomic wfcs +   22 random wfcs

     Band Structure Calculation
     Davidson diagonalization with overlap

     Computing kpt #:     1
     total cpu time spent up to now is        0.6 secs

     Computing kpt #:     2
     total cpu time spent up to now is        0.9 secs

     Computing kpt #:     3
     total cpu time spent up to now is        1.2 secs

     Computing kpt #:     4
     total cpu time spent up to now is        1.4 secs

     Computing kpt #:     5
     total cpu time spent up to now is        1.7 secs

     Computing kpt #:     6
     total cpu time spent up to now is        2.0 secs

     Computing kpt #:     7
     total cpu time spent up to now is        2.4 secs

     Computing kpt #:     8
     total cpu time spent up to now is        2.6 secs

     Computing kpt #:     9
     total cpu time spent up to now is        2.9 secs

     Computing kpt #:    10
     total cpu time spent up to now is        3.2 secs

     Computing kpt #:    11
     total cpu time spent up to now is        3.8 secs

     Computing kpt #:    12
     total cpu time spent up to now is        4.1 secs

     Computing kpt #:    13
     total cpu time spent up to now is        4.4 secs

     Computing kpt #:    14
     total cpu time spent up to now is        4.6 secs

     Computing kpt #:    15
     total cpu time spent up to now is        5.1 secs

     Computing kpt #:    16
     total cpu time spent up to now is        5.9 secs

     Computing kpt #:    17
     total cpu time spent up to now is        6.4 secs

     Computing kpt #:    18
     total cpu time spent up to now is        6.9 secs

     Computing kpt #:    19
     total cpu time spent up to now is        7.4 secs

     Computing kpt #:    20
     total cpu time spent up to now is        7.8 secs

     Computing kpt #:    21
     total cpu time spent up to now is        8.2 secs

     Computing kpt #:    22
     total cpu time spent up to now is        8.7 secs

     Computing kpt #:    23
     total cpu time spent up to now is        9.0 secs

     Computing kpt #:    24
     total cpu time spent up to now is        9.3 secs

     Computing kpt #:    25
     total cpu time spent up to now is        9.5 secs

     Computing kpt #:    26
     total cpu time spent up to now is        9.8 secs

     Computing kpt #:    27
     total cpu time spent up to now is       10.2 secs

     Computing kpt #:    28
     total cpu time spent up to now is       10.5 secs

     Computing kpt #:    29
     total cpu time spent up to now is       10.8 secs

     Computing kpt #:    30
     total cpu time spent up to now is       11.2 secs

     Computing kpt #:    31
     total cpu time spent up to now is       11.5 secs

     Computing kpt #:    32
     total cpu time spent up to now is       11.8 secs

     Computing kpt #:    33
     total cpu time spent up to now is       12.1 secs

     Computing kpt #:    34
     total cpu time spent up to now is       12.3 secs

     Computing kpt #:    35
     total cpu time spent up to now is       12.7 secs

     Computing kpt #:    36
     total cpu time spent up to now is       13.0 secs

     Computing kpt #:    37
     total cpu time spent up to now is       13.3 secs

     Computing kpt #:    38
     total cpu time spent up to now is       13.8 secs

     Computing kpt #:    39
     total cpu time spent up to now is       14.1 secs

     Computing kpt #:    40
     total cpu time spent up to now is       14.3 secs

     Computing kpt #:    41
     total cpu time spent up to now is       14.6 secs

     Computing kpt #:    42
     total cpu time spent up to now is       14.8 secs

     Computing kpt #:    43
     total cpu time spent up to now is       15.1 secs

     Computing kpt #:    44
     total cpu time spent up to now is       15.4 secs

     Computing kpt #:    45
     total cpu time spent up to now is       15.7 secs

     Computing kpt #:    46
     total cpu time spent up to now is       16.0 secs

     Computing kpt #:    47
     total cpu time spent up to now is       16.3 secs

     Computing kpt #:    48
     total cpu time spent up to now is       16.7 secs

     Computing kpt #:    49
     total cpu time spent up to now is       17.1 secs

     Computing kpt #:    50
     total cpu time spent up to now is       17.4 secs

     Computing kpt #:    51
     total cpu time spent up to now is       17.7 secs

     Computing kpt #:    52
     total cpu time spent up to now is       18.1 secs

     Computing kpt #:    53
     total cpu time spent up to now is       19.0 secs

     Computing kpt #:    54
     total cpu time spent up to now is       19.7 secs

     Computing kpt #:    55
     total cpu time spent up to now is       20.1 secs

     Computing kpt #:    56
     total cpu time spent up to now is       20.3 secs

     Computing kpt #:    57
     total cpu time spent up to now is       20.6 secs

     Computing kpt #:    58
     total cpu time spent up to now is       20.9 secs

     Computing kpt #:    59
     total cpu time spent up to now is       21.2 secs

     Computing kpt #:    60
     total cpu time spent up to now is       21.6 secs

     Computing kpt #:    61
     total cpu time spent up to now is       21.9 secs

     Computing kpt #:    62
     total cpu time spent up to now is       22.2 secs

     Computing kpt #:    63
     total cpu time spent up to now is       22.5 secs

     Computing kpt #:    64
     total cpu time spent up to now is       22.9 secs

     Computing kpt #:    65
     total cpu time spent up to now is       23.7 secs

     Computing kpt #:    66
     total cpu time spent up to now is       24.2 secs

     Computing kpt #:    67
     total cpu time spent up to now is       24.5 secs

     Computing kpt #:    68
     total cpu time spent up to now is       24.8 secs

     Computing kpt #:    69
     total cpu time spent up to now is       25.1 secs

     Computing kpt #:    70
     total cpu time spent up to now is       25.4 secs

     Computing kpt #:    71
     total cpu time spent up to now is       25.8 secs

     Computing kpt #:    72
     total cpu time spent up to now is       26.1 secs

     Computing kpt #:    73
     total cpu time spent up to now is       26.4 secs

     Computing kpt #:    74
     total cpu time spent up to now is       26.8 secs

     Computing kpt #:    75
     total cpu time spent up to now is       27.1 secs

     Computing kpt #:    76
     total cpu time spent up to now is       27.4 secs

     Computing kpt #:    77
     total cpu time spent up to now is       27.7 secs

     Computing kpt #:    78
     total cpu time spent up to now is       27.9 secs

     Computing kpt #:    79
     total cpu time spent up to now is       28.2 secs

     Computing kpt #:    80
     total cpu time spent up to now is       28.6 secs

     Computing kpt #:    81
     total cpu time spent up to now is       29.0 secs

     Computing kpt #:    82
     total cpu time spent up to now is       29.2 secs

     Computing kpt #:    83
     total cpu time spent up to now is       29.5 secs

     Computing kpt #:    84
     total cpu time spent up to now is       29.8 secs

     Computing kpt #:    85
     total cpu time spent up to now is       30.1 secs

     Computing kpt #:    86
     total cpu time spent up to now is       30.3 secs

     Computing kpt #:    87
     total cpu time spent up to now is       30.6 secs

     Computing kpt #:    88
     total cpu time spent up to now is       30.9 secs

     Computing kpt #:    89
     total cpu time spent up to now is       31.1 secs

     Computing kpt #:    90
     total cpu time spent up to now is       31.5 secs

     Computing kpt #:    91
     total cpu time spent up to now is       31.7 secs

     Computing kpt #:    92
     total cpu time spent up to now is       32.0 secs

     Computing kpt #:    93
     total cpu time spent up to now is       32.2 secs

     Computing kpt #:    94
     total cpu time spent up to now is       32.5 secs

     Computing kpt #:    95
     total cpu time spent up to now is       32.7 secs

     Computing kpt #:    96
     total cpu time spent up to now is       33.0 secs

     Computing kpt #:    97
     total cpu time spent up to now is       33.2 secs

     Computing kpt #:    98
     total cpu time spent up to now is       33.8 secs

     Computing kpt #:    99
     total cpu time spent up to now is       34.0 secs

     Computing kpt #:   100
     total cpu time spent up to now is       34.4 secs

     Computing kpt #:   101
     total cpu time spent up to now is       34.6 secs

     Computing kpt #:   102
     total cpu time spent up to now is       34.9 secs

     Computing kpt #:   103
     total cpu time spent up to now is       35.2 secs

     Computing kpt #:   104
     total cpu time spent up to now is       35.5 secs

     Computing kpt #:   105
     total cpu time spent up to now is       35.7 secs

     Computing kpt #:   106
     total cpu time spent up to now is       36.0 secs

     Computing kpt #:   107
     total cpu time spent up to now is       36.3 secs

     Computing kpt #:   108
     total cpu time spent up to now is       36.5 secs

     Computing kpt #:   109
     total cpu time spent up to now is       36.8 secs

     Computing kpt #:   110
     total cpu time spent up to now is       37.0 secs

     ethr =  1.25E-10,  avg # of iterations = 19.7

     total cpu time spent up to now is       37.0 secs

     End of band structure calculation

          k =-0.0500 0.0500 0.0500 (   935 PWs)   bands (ev):

    -5.5731   6.0699   6.3640   6.3640   9.0759   9.0847   9.0847  10.3207
    14.0485  14.0485  14.6503  17.6272  17.9788  17.9788  22.2109  29.5325
    29.5702  29.5702  30.9014  30.9014  32.8476  32.8476  33.0065  35.8292
    36.2940  36.2940  41.8970  42.3837  42.3837  45.3153

     occupation numbers 
     1.0000   1.0000   1.0000   1.0000   0.0000   0.0000   0.0000   0.0000
     0.0000   0.0000   0.0000   0.0000   0.0000   0.0000   0.0000   0.0000
     0.0000   0.0000   0.0000   0.0000   0.0000   0.0000   0.0000   0.0000
     0.0000   0.0000   0.0000   0.0000   0.0000   0.0000

          k =-0.1500 0.1500-0.0500 (   923 PWs)   bands (ev):

    -5.3963   4.9411   5.7814   6.2895   9.1979   9.2517   9.5201  11.3284
    13.3912  13.9573  15.3266  17.4169  18.3952  19.2471  23.2671  27.1735
    28.5163  28.5467  30.1448  30.5556  33.2139  33.3087  34.2551  36.3777
    37.5783  38.5934  39.8752  41.1375  42.1783  43.7177

     occupation numbers 
     1.0000   1.0000   1.0000   1.0000   0.0000   0.0000   0.0000   0.0000
     0.0000   0.0000   0.0000   0.0000   0.0000   0.0000   0.0000   0.0000
     0.0000   0.0000   0.0000   0.0000   0.0000   0.0000   0.0000   0.0000
     0.0000   0.0000   0.0000   0.0000   0.0000   0.0000

          k =-0.2500 0.2500-0.1500 (   924 PWs)   bands (ev):

    -4.9624   3.1036   5.3451   5.9360   8.8881   9.7154  10.0517  12.7079
    13.0886  14.1949  15.8249  17.8236  20.1033  21.1201  24.4183  24.9006
    25.8768  26.8741  30.3263  30.6140  33.5279  33.5379  35.5679  36.6913
    36.7247  39.3186  39.6918  40.4944  40.7506  41.6794

     occupation numbers 
     1.0000   1.0000   1.0000   1.0000   0.0000   0.0000   0.0000   0.0000
     0.0000   0.0000   0.0000   0.0000   0.0000   0.0000   0.0000   0.0000
     0.0000   0.0000   0.0000   0.0000   0.0000   0.0000   0.0000   0.0000
     0.0000   0.0000   0.0000   0.0000   0.0000   0.0000

          k =-0.3500 0.3500-0.2500 (   922 PWs)   bands (ev):

    -4.3033   1.3468   5.0548   5.5652   8.5648   9.8905  10.0865  13.7480
    13.7939  15.2236  15.7987  19.8216  20.9302  22.0076  23.2772  23.9888
    24.5948  28.3124  30.5667  30.7164  32.6076  33.4317  33.9770  36.1862
    36.9362  37.1534  37.4831  39.1095  40.1294  40.7869

     occupation numbers 
     1.0000   1.0000   1.0000   1.0000   0.0000   0.0000   0.0000   0.0000
     0.0000   0.0000   0.0000   0.0000   0.0000   0.0000   0.0000   0.0000
     0.0000   0.0000   0.0000   0.0000   0.0000   0.0000   0.0000   0.0000
     0.0000   0.0000   0.0000   0.0000   0.0000   0.0000

          k =-0.4500 0.4500-0.3500 (   932 PWs)   bands (ev):

    -3.5413  -0.0667   4.9314   5.2871   8.3611   9.8506   9.8569  14.3551
    15.2427  15.9098  17.4768  18.6641  19.9445  20.7799  23.9362  25.7329
    26.7285  29.0988  29.9917  30.2068  31.1282  32.6181  34.0403  34.3815
    34.8745  36.5872  37.8090  38.4490  39.1483  40.2281

     occupation numbers 
     1.0000   1.0000   1.0000   1.0000   0.0000   0.0000   0.0000   0.0000
     0.0000   0.0000   0.0000   0.0000   0.0000   0.0000   0.0000   0.0000
     0.0000   0.0000   0.0000   0.0000   0.0000   0.0000   0.0000   0.0000
     0.0000   0.0000   0.0000   0.0000   0.0000   0.0000

          k = 0.4500-0.4500 0.5500 (   926 PWs)   bands (ev):

    -3.2115  -0.5617   4.9724   5.1409   8.3098   9.7090   9.8960  14.3241
    16.1672  17.0107  17.9481  17.9532  18.5865  20.0510  25.7630  26.8875
    27.5971  28.3183  28.5882  29.1353  32.5258  32.7659  32.8733  34.5884
    34.7180  35.3526  37.9687  38.5538  38.5627  40.2399

     occupation numbers 
     1.0000   1.0000   1.0000   1.0000   0.0000   0.0000   0.0000   0.0000
     0.0000   0.0000   0.0000   0.0000   0.0000   0.0000   0.0000   0.0000
     0.0000   0.0000   0.0000   0.0000   0.0000   0.0000   0.0000   0.0000
     0.0000   0.0000   0.0000   0.0000   0.0000   0.0000

          k = 0.3500-0.3500 0.4500 (   926 PWs)   bands (ev):

    -3.7886   0.3444   5.1466   5.1638   8.4155   9.7251  10.0897  14.0023
    14.9519  15.7247  16.6987  19.6088  20.1482  21.2873  23.4497  24.9091
    25.7961  29.8655  30.3328  30.4263  30.7372  32.7820  34.2578  34.9077
    35.2294  37.0242  37.7042  38.6335  39.3392  40.3539

     occupation numbers 
     1.0000   1.0000   1.0000   1.0000   0.0000   0.0000   0.0000   0.0000
     0.0000   0.0000   0.0000   0.0000   0.0000   0.0000   0.0000   0.0000
     0.0000   0.0000   0.0000   0.0000   0.0000   0.0000   0.0000   0.0000
     0.0000   0.0000   0.0000   0.0000   0.0000   0.0000

          k = 0.2500-0.2500 0.3500 (   932 PWs)   bands (ev):

    -4.5437   1.9068   5.3149   5.4835   8.6621   9.7599  10.2741  12.8918
    14.3878  14.5417  15.5999  19.1759  21.1270  21.9893  23.4437  23.9650
    24.7935  27.5739  30.4046  30.8269  33.2917  33.7931  33.9916  36.8758
    36.9958  37.4094  38.1703  39.4835  40.4026  41.0113

     occupation numbers 
     1.0000   1.0000   1.0000   1.0000   0.0000   0.0000   0.0000   0.0000
     0.0000   0.0000   0.0000   0.0000   0.0000   0.0000   0.0000   0.0000
     0.0000   0.0000   0.0000   0.0000   0.0000   0.0000   0.0000   0.0000
     0.0000   0.0000   0.0000   0.0000   0.0000   0.0000

          k = 0.1500-0.1500 0.2500 (   921 PWs)   bands (ev):

    -5.1342   3.7262   5.6369   5.8806   8.9608   9.5004  10.0802  12.1468
    13.3047  13.9195  15.8332  17.4089  19.5921  20.3197  24.4359  25.6384
    26.1660  27.6040  30.2308  30.5688  33.2726  33.6484  35.2179  36.6209
    37.6771  39.3752  40.0512  40.5968  40.9941  42.0237

     occupation numbers 
     1.0000   1.0000   1.0000   1.0000   0.0000   0.0000   0.0000   0.0000
     0.0000   0.0000   0.0000   0.0000   0.0000   0.0000   0.0000   0.0000
     0.0000   0.0000   0.0000   0.0000   0.0000   0.0000   0.0000   0.0000
     0.0000   0.0000   0.0000   0.0000   0.0000   0.0000

          k = 0.0500-0.0500 0.1500 (   927 PWs)   bands (ev):

    -5.4844   5.5285   6.0520   6.1929   8.8913   9.3738   9.5005  10.8028
    13.5096  14.1578  15.0125  17.6207  18.1259  18.5497  22.7991  28.3759
    28.4826  29.6452  30.2240  30.4654  33.0915  33.2874  33.6137  36.3217
    36.9389  37.5170  40.9329  41.6417  42.0759  44.5033

     occupation numbers 
     1.0000   1.0000   1.0000   1.0000   0.0000   0.0000   0.0000   0.0000
     0.0000   0.0000   0.0000   0.0000   0.0000   0.0000   0.0000   0.0000
     0.0000   0.0000   0.0000   0.0000   0.0000   0.0000   0.0000   0.0000
     0.0000   0.0000   0.0000   0.0000   0.0000   0.0000

          k =-0.0500 0.2500 0.0500 (   930 PWs)   bands (ev):

    -5.3076   4.8514   5.6054   5.7285   8.5715   9.9623  10.1521  11.2366
    13.0256  14.3765  15.6615  17.8683  18.4179  19.1564  23.8950  26.9633
    27.1463  28.9528  29.5005  30.0559  33.3260  33.7442  34.2222  37.5393
    38.1437  39.0426  39.6223  40.3779  41.0705  42.5386

     occupation numbers 
     1.0000   1.0000   1.0000   1.0000   0.0000   0.0000   0.0000   0.0000
     0.0000   0.0000   0.0000   0.0000   0.0000   0.0000   0.0000   0.0000
     0.0000   0.0000   0.0000   0.0000   0.0000   0.0000   0.0000   0.0000
     0.0000   0.0000   0.0000   0.0000   0.0000   0.0000

          k =-0.1500 0.3500-0.0500 (   926 PWs)   bands (ev):

    -4.9583   3.6019   4.8479   5.5352   8.6376  10.1914  10.7867  11.2516
    13.6061  14.6774  16.5775  17.9794  19.1678  20.7338  24.3816  25.3352
    26.0017  27.9829  28.9160  29.6717  32.9578  34.4516  35.3667  37.1951
    38.3848  38.5043  39.8678  40.0148  40.6246  41.2474

     occupation numbers 
     1.0000   1.0000   1.0000   1.0000   0.0000   0.0000   0.0000   0.0000
     0.0000   0.0000   0.0000   0.0000   0.0000   0.0000   0.0000   0.0000
     0.0000   0.0000   0.0000   0.0000   0.0000   0.0000   0.0000   0.0000
     0.0000   0.0000   0.0000   0.0000   0.0000   0.0000

          k =-0.2500 0.4500-0.1500 (   929 PWs)   bands (ev):

    -4.3693   1.9284   4.4228   5.1612   8.8781  10.1086  11.0398  11.4614
    14.5675  16.0241  16.4514  19.2322  20.5166  22.1764  22.5295  24.1879
    25.8783  28.2641  28.6692  29.9938  32.7086  33.1734  34.6577  36.5784
    37.3448  37.6528  38.4522  39.2541  39.9895  40.3557

     occupation numbers 
     1.0000   1.0000   1.0000   1.0000   0.0000   0.0000   0.0000   0.0000
     0.0000   0.0000   0.0000   0.0000   0.0000   0.0000   0.0000   0.0000
     0.0000   0.0000   0.0000   0.0000   0.0000   0.0000   0.0000   0.0000
     0.0000   0.0000   0.0000   0.0000   0.0000   0.0000

          k =-0.3500 0.5500-0.2500 (   923 PWs)   bands (ev):

    -3.6146   0.4174   4.1562   4.8704   8.8514   9.8961  10.8888  12.6606
    15.6306  16.2555  17.9006  18.5682  20.1315  22.1997  23.7848  24.4405
    26.1827  28.5963  29.2915  30.4075  31.3408  31.5272  34.3014  35.0561
    35.4322  36.8551  37.6536  38.2252  39.5048  40.1150

     occupation numbers 
     1.0000   1.0000   1.0000   1.0000   0.0000   0.0000   0.0000   0.0000
     0.0000   0.0000   0.0000   0.0000   0.0000   0.0000   0.0000   0.0000
     0.0000   0.0000   0.0000   0.0000   0.0000   0.0000   0.0000   0.0000
     0.0000   0.0000   0.0000   0.0000   0.0000   0.0000

          k = 0.5500-0.3500 0.6500 (   925 PWs)   bands (ev):

    -3.0352  -0.4742   3.9767   4.8224   8.8703   9.7248  10.7172  14.3080
    15.2383  16.4316  18.0500  18.3903  19.9636  21.2561  25.5240  26.2432
    27.0823  27.9490  28.2489  28.9444  31.7283  32.4013  33.1278  34.4724
    34.8077  36.0724  37.0631  37.2665  39.2897  40.1392

     occupation numbers 
     1.0000   1.0000   1.0000   1.0000   0.0000   0.0000   0.0000   0.0000
     0.0000   0.0000   0.0000   0.0000   0.0000   0.0000   0.0000   0.0000
     0.0000   0.0000   0.0000   0.0000   0.0000   0.0000   0.0000   0.0000
     0.0000   0.0000   0.0000   0.0000   0.0000   0.0000

          k = 0.4500-0.2500 0.5500 (   928 PWs)   bands (ev):

    -3.3694   0.0195   3.9094   5.0186   9.0226   9.7155  10.6929  13.7421
    15.2015  15.8624  17.7689  19.0429  20.3833  21.8600  23.5877  25.2650
    27.1329  28.5648  29.1869  29.4870  31.3131  32.0304  34.0376  34.4078
    34.7716  36.2825  37.2965  38.2266  39.6792  40.1774

     occupation numbers 
     1.0000   1.0000   1.0000   1.0000   0.0000   0.0000   0.0000   0.0000
     0.0000   0.0000   0.0000   0.0000   0.0000   0.0000   0.0000   0.0000
     0.0000   0.0000   0.0000   0.0000   0.0000   0.0000   0.0000   0.0000
     0.0000   0.0000   0.0000   0.0000   0.0000   0.0000

          k = 0.3500-0.1500 0.4500 (   926 PWs)   bands (ev):

    -4.1318   1.3962   4.0203   5.3833   9.2533   9.8070  10.7554  12.3261
    13.9398  16.3318  17.1080  19.1581  20.6116  22.2723  22.7611  24.5687
    25.4812  28.5591  29.0435  30.0273  32.1623  32.7971  34.4393  35.7786
    36.6180  37.3996  38.0314  38.7885  40.2217  40.5251

     occupation numbers 
     1.0000   1.0000   1.0000   1.0000   0.0000   0.0000   0.0000   0.0000
     0.0000   0.0000   0.0000   0.0000   0.0000   0.0000   0.0000   0.0000
     0.0000   0.0000   0.0000   0.0000   0.0000   0.0000   0.0000   0.0000
     0.0000   0.0000   0.0000   0.0000   0.0000   0.0000

          k = 0.2500-0.0500 0.3500 (   928 PWs)   bands (ev):

    -4.7886   3.0170   4.3943   5.8002   9.3122   9.7627  10.5548  11.7260
    13.1786  15.2949  16.7139  18.0261  19.6368  21.9000  23.0547  25.3811
    26.4311  27.7882  28.4275  29.6445  32.9662  34.3031  35.8667  36.5701
    37.7096  38.1019  39.4591  40.0801  40.9427  41.3097

     occupation numbers 
     1.0000   1.0000   1.0000   1.0000   0.0000   0.0000   0.0000   0.0000
     0.0000   0.0000   0.0000   0.0000   0.0000   0.0000   0.0000   0.0000
     0.0000   0.0000   0.0000   0.0000   0.0000   0.0000   0.0000   0.0000
     0.0000   0.0000   0.0000   0.0000   0.0000   0.0000

          k = 0.1500 0.0500 0.2500 (   923 PWs)   bands (ev):

    -5.2205   4.2821   5.3283   6.0353   8.9787   9.6165  10.0343  11.7173
    13.0957  14.1823  15.8801  17.5652  18.7130  20.0362  24.1918  25.7643
    27.2033  28.6533  29.3720  30.1036  33.0822  33.9448  34.9466  37.1759
    38.5175  38.5968  39.9105  40.0814  41.5283  42.1779

     occupation numbers 
     1.0000   1.0000   1.0000   1.0000   0.0000   0.0000   0.0000   0.0000
     0.0000   0.0000   0.0000   0.0000   0.0000   0.0000   0.0000   0.0000
     0.0000   0.0000   0.0000   0.0000   0.0000   0.0000   0.0000   0.0000
     0.0000   0.0000   0.0000   0.0000   0.0000   0.0000

          k =-0.0500 0.4500 0.0500 (   928 PWs)   bands (ev):

    -4.6939   3.2813   4.6874   4.7114   7.8495  10.0388  11.6337  11.7426
    14.3430  15.1394  17.4583  18.9088  19.3782  20.3801  24.2375  24.5012
    26.1318  26.8958  27.7373  30.9814  33.3728  34.2639  34.6006  36.6691
    37.0844  37.7568  38.4697  40.8084  41.3074  42.0066

     occupation numbers 
     1.0000   1.0000   1.0000   1.0000   0.0000   0.0000   0.0000   0.0000
     0.0000   0.0000   0.0000   0.0000   0.0000   0.0000   0.0000   0.0000
     0.0000   0.0000   0.0000   0.0000   0.0000   0.0000   0.0000   0.0000
     0.0000   0.0000   0.0000   0.0000   0.0000   0.0000

          k =-0.1500 0.5500-0.0500 (   926 PWs)   bands (ev):

    -4.1822   2.1705   3.9815   4.4679   7.9844   9.6144  11.8031  12.5057
    15.3214  16.2937  18.0626  19.2990  20.2648  21.6594  22.2704  23.8201
    25.4446  27.2855  28.1489  31.2799  32.3193  33.1493  34.2341  35.6186
    36.2069  36.8502  37.4639  40.2490  41.3095  42.2566

     occupation numbers 
     1.0000   1.0000   1.0000   1.0000   0.0000   0.0000   0.0000   0.0000
     0.0000   0.0000   0.0000   0.0000   0.0000   0.0000   0.0000   0.0000
     0.0000   0.0000   0.0000   0.0000   0.0000   0.0000   0.0000   0.0000
     0.0000   0.0000   0.0000   0.0000   0.0000   0.0000

          k =-0.2500 0.6500-0.1500 (   924 PWs)   bands (ev):

    -3.4684   0.8481   3.3664   4.2347   8.2296  10.3317  11.5133  12.5678
    16.6277  17.2740  18.2962  18.7923  20.2661  21.8141  23.3076  25.0371
    25.7481  26.5336  28.4035  29.6769  31.6656  32.6656  33.1362  34.0151
    35.8955  36.9123  37.7696  38.2068  39.8085  41.0799

     occupation numbers 
     1.0000   1.0000   1.0000   1.0000   0.0000   0.0000   0.0000   0.0000
     0.0000   0.0000   0.0000   0.0000   0.0000   0.0000   0.0000   0.0000
     0.0000   0.0000   0.0000   0.0000   0.0000   0.0000   0.0000   0.0000
     0.0000   0.0000   0.0000   0.0000   0.0000   0.0000

          k = 0.6500-0.2500 0.7500 (   927 PWs)   bands (ev):

    -2.7504  -0.2159   2.8818   4.2563   8.3498  11.1059  12.0148  12.3974
    15.6200  17.0063  18.5689  19.1139  20.4042  23.7843  24.4455  25.4640
    26.0036  26.1768  27.5587  29.5116  30.4194  32.0289  33.0582  34.2948
    34.8065  36.0768  37.0310  38.0804  38.4183  40.4101

     occupation numbers 
     1.0000   1.0000   1.0000   1.0000   0.0000   0.0000   0.0000   0.0000
     0.0000   0.0000   0.0000   0.0000   0.0000   0.0000   0.0000   0.0000
     0.0000   0.0000   0.0000   0.0000   0.0000   0.0000   0.0000   0.0000
     0.0000   0.0000   0.0000   0.0000   0.0000   0.0000

          k = 0.5500-0.1500 0.6500 (   932 PWs)   bands (ev):

    -2.7742  -0.1761   2.6230   4.5132   8.6431  10.8867  12.1804  13.6173
    14.1264  15.2934  18.6564  20.7904  21.9790  22.2609  23.2130  25.4428
    26.2285  27.1725  28.2017  29.2298  31.2493  32.1908  33.0653  33.4291
    34.4508  35.1927  36.7650  37.7792  39.9759  40.3746

     occupation numbers 
     1.0000   1.0000   1.0000   1.0000   0.0000   0.0000   0.0000   0.0000
     0.0000   0.0000   0.0000   0.0000   0.0000   0.0000   0.0000   0.0000
     0.0000   0.0000   0.0000   0.0000   0.0000   0.0000   0.0000   0.0000
     0.0000   0.0000   0.0000   0.0000   0.0000   0.0000

          k = 0.4500-0.0500 0.5500 (   923 PWs)   bands (ev):

    -3.4991   0.8744   2.7125   4.9431   9.1157  10.6402  11.9395  12.1537
    13.7564  16.1837  18.9449  19.7494  20.4035  22.8108  23.4400  24.5811
    25.5224  28.1275  28.3019  30.4292  31.7605  31.9095  33.1476  34.2245
    34.7787  36.6661  36.9752  38.5393  40.6621  41.1519

     occupation numbers 
     1.0000   1.0000   1.0000   1.0000   0.0000   0.0000   0.0000   0.0000
     0.0000   0.0000   0.0000   0.0000   0.0000   0.0000   0.0000   0.0000
     0.0000   0.0000   0.0000   0.0000   0.0000   0.0000   0.0000   0.0000
     0.0000   0.0000   0.0000   0.0000   0.0000   0.0000

          k = 0.3500 0.0500 0.4500 (   925 PWs)   bands (ev):

    -4.2041   1.8668   3.4848   5.4206   9.5524   9.9221  11.1795  11.7207
    13.3127  17.1298  17.3753  18.6172  20.4006  21.6480  23.2707  25.0860
    26.1337  27.3063  28.8672  29.4851  32.6513  32.9554  34.8149  35.3734
    36.5361  37.1292  38.5459  39.7502  40.5726  41.1482

     occupation numbers 
     1.0000   1.0000   1.0000   1.0000   0.0000   0.0000   0.0000   0.0000
     0.0000   0.0000   0.0000   0.0000   0.0000   0.0000   0.0000   0.0000
     0.0000   0.0000   0.0000   0.0000   0.0000   0.0000   0.0000   0.0000
     0.0000   0.0000   0.0000   0.0000   0.0000   0.0000

          k = 0.2500 0.1500 0.3500 (   929 PWs)   bands (ev):

    -4.7065   2.4995   4.9005   5.6657   9.0196   9.7136  10.4517  12.1743
    13.6734  15.0197  16.0348  18.5116  20.4210  21.9484  23.2096  24.7418
    25.5821  27.4462  29.5019  30.3312  33.1605  34.0781  34.9002  36.8019
    37.2995  38.4295  38.7676  39.8758  40.1990  41.1649

     occupation numbers 
     1.0000   1.0000   1.0000   1.0000   0.0000   0.0000   0.0000   0.0000
     0.0000   0.0000   0.0000   0.0000   0.0000   0.0000   0.0000   0.0000
     0.0000   0.0000   0.0000   0.0000   0.0000   0.0000   0.0000   0.0000
     0.0000   0.0000   0.0000   0.0000   0.0000   0.0000

          k =-0.0500 0.6500 0.0500 (   930 PWs)   bands (ev):

    -3.7479   1.5564   3.9130   4.0285   7.3065   8.6082  13.4378  13.4856
    16.3224  16.5014  19.2046  19.9982  20.2953  21.4605  22.5584  23.1560
    23.6395  26.0968  29.4646  31.4154  32.5328  32.6209  33.5890  34.1563
    35.0659  35.6382  36.2554  41.2932  42.2642  42.7909

     occupation numbers 
     1.0000   1.0000   1.0000   1.0000   0.0000   0.0000   0.0000   0.0000
     0.0000   0.0000   0.0000   0.0000   0.0000   0.0000   0.0000   0.0000
     0.0000   0.0000   0.0000   0.0000   0.0000   0.0000   0.0000   0.0000
     0.0000   0.0000   0.0000   0.0000   0.0000   0.0000

          k =-0.1500 0.7500-0.0500 (   924 PWs)   bands (ev):

    -3.0931   0.6098   3.3533   3.7553   7.5617   8.4936  13.4375  14.3730
    17.1130  18.0605  18.3616  19.3703  21.0303  21.5077  22.6238  23.6011
    24.8641  26.1220  29.0074  29.6166  30.7030  31.6248  32.5203  33.8599
    35.0748  36.1871  37.7119  40.1636  40.9075  41.3902

     occupation numbers 
     1.0000   1.0000   1.0000   1.0000   0.0000   0.0000   0.0000   0.0000
     0.0000   0.0000   0.0000   0.0000   0.0000   0.0000   0.0000   0.0000
     0.0000   0.0000   0.0000   0.0000   0.0000   0.0000   0.0000   0.0000
     0.0000   0.0000   0.0000   0.0000   0.0000   0.0000

          k = 0.7500-0.1500 0.8500 (   931 PWs)   bands (ev):

    -2.3270  -0.2966   2.5139   3.7654   7.7714   9.7404  13.0921  14.3544
    15.9053  17.3694  18.9606  20.5191  21.0735  22.3537  23.5293  25.0414
    25.5612  26.5588  27.1469  29.3310  29.6589  30.7527  31.0056  33.6736
    35.8910  36.6448  37.4123  39.0967  39.4995  41.1004

     occupation numbers 
     1.0000   1.0000   1.0000   1.0000   0.0000   0.0000   0.0000   0.0000
     0.0000   0.0000   0.0000   0.0000   0.0000   0.0000   0.0000   0.0000
     0.0000   0.0000   0.0000   0.0000   0.0000   0.0000   0.0000   0.0000
     0.0000   0.0000   0.0000   0.0000   0.0000   0.0000

          k = 0.6500-0.0500 0.7500 (   928 PWs)   bands (ev):

    -2.0837  -0.5371   1.9966   4.0130   8.0613  11.6007  12.7597  13.7710
    14.1587  15.4249  20.9123  20.9778  22.3446  22.5556  23.2540  24.8390
    25.0591  26.4893  28.3117  29.1557  29.2939  30.8712  32.5082  34.0190
    34.0969  35.4894  37.0201  37.3344  40.6068  41.0501

     occupation numbers 
     1.0000   1.0000   1.0000   1.0000   0.0000   0.0000   0.0000   0.0000
     0.0000   0.0000   0.0000   0.0000   0.0000   0.0000   0.0000   0.0000
     0.0000   0.0000   0.0000   0.0000   0.0000   0.0000   0.0000   0.0000
     0.0000   0.0000   0.0000   0.0000   0.0000   0.0000

          k = 0.5500 0.0500 0.6500 (   928 PWs)   bands (ev):

    -2.7427   0.0636   2.1726   4.4505   8.5637  11.5452  12.7901  12.9268
    14.0851  14.5093  19.8040  21.2675  21.9056  22.3552  23.6578  24.2877
    25.4339  27.0563  28.7348  29.8970  30.6251  31.5327  32.5414  34.3814
    34.6057  34.9410  36.4879  36.8654  40.5537  41.6246

     occupation numbers 
     1.0000   1.0000   1.0000   1.0000   0.0000   0.0000   0.0000   0.0000
     0.0000   0.0000   0.0000   0.0000   0.0000   0.0000   0.0000   0.0000
     0.0000   0.0000   0.0000   0.0000   0.0000   0.0000   0.0000   0.0000
     0.0000   0.0000   0.0000   0.0000   0.0000   0.0000

          k = 0.4500 0.1500 0.5500 (   923 PWs)   bands (ev):

    -3.4521   0.4783   3.2274   4.9709   9.1283  10.1232  11.3441  12.8567
    14.4856  16.0211  18.1452  19.4761  21.3087  21.9984  23.3552  24.5142
    26.3824  28.3975  28.8643  29.7976  31.4994  31.8790  33.9192  34.0664
    35.5517  35.5840  36.8447  39.3255  40.0113  40.8667

     occupation numbers 
     1.0000   1.0000   1.0000   1.0000   0.0000   0.0000   0.0000   0.0000
     0.0000   0.0000   0.0000   0.0000   0.0000   0.0000   0.0000   0.0000
     0.0000   0.0000   0.0000   0.0000   0.0000   0.0000   0.0000   0.0000
     0.0000   0.0000   0.0000   0.0000   0.0000   0.0000

          k = 0.3500 0.2500 0.4500 (   926 PWs)   bands (ev):

    -3.9905   0.8468   4.6575   5.2992   8.7917   9.7414  10.3629  13.1569
    14.7313  15.6490  16.7544  19.5520  20.7219  21.7649  23.4266  24.0027
    25.4030  29.4261  29.7169  30.5465  31.3657  32.6657  34.2912  35.6174
    36.1202  37.3290  38.1131  38.2441  39.3539  40.3317

     occupation numbers 
     1.0000   1.0000   1.0000   1.0000   0.0000   0.0000   0.0000   0.0000
     0.0000   0.0000   0.0000   0.0000   0.0000   0.0000   0.0000   0.0000
     0.0000   0.0000   0.0000   0.0000   0.0000   0.0000   0.0000   0.0000
     0.0000   0.0000   0.0000   0.0000   0.0000   0.0000

          k =-0.0500 0.8500 0.0500 (   940 PWs)   bands (ev):

    -2.4988  -0.1713   3.4795   3.6351   7.0969   7.6506  15.3141  15.3463
    17.8914  18.3154  18.4106  18.6942  20.7304  20.8647  23.2515  24.5897
    24.8372  25.8705  28.2005  29.1433  29.4531  30.4961  31.2242  33.3195
    36.1363  36.4086  38.1177  40.7197  41.3370  42.3905

     occupation numbers 
     1.0000   1.0000   1.0000   1.0000   0.0000   0.0000   0.0000   0.0000
     0.0000   0.0000   0.0000   0.0000   0.0000   0.0000   0.0000   0.0000
     0.0000   0.0000   0.0000   0.0000   0.0000   0.0000   0.0000   0.0000
     0.0000   0.0000   0.0000   0.0000   0.0000   0.0000

          k = 0.8500-0.0500 0.9500 (   944 PWs)   bands (ev):

    -1.7389  -0.9768   3.0653   3.4654   7.4246   7.9523  15.2020  16.0163
    16.5463  17.4267  19.0670  20.0251  20.4430  21.3286  23.8000  25.1195
    25.6673  26.6532  27.5217  27.8435  28.9971  29.5909  31.0449  32.0176
    36.5984  37.3975  38.9865  40.0778  40.6794  41.6406

     occupation numbers 
     1.0000   1.0000   1.0000   1.0000   0.0000   0.0000   0.0000   0.0000
     0.0000   0.0000   0.0000   0.0000   0.0000   0.0000   0.0000   0.0000
     0.0000   0.0000   0.0000   0.0000   0.0000   0.0000   0.0000   0.0000
     0.0000   0.0000   0.0000   0.0000   0.0000   0.0000

          k = 0.7500 0.0500 0.8500 (   936 PWs)   bands (ev):

    -1.7465  -0.8759   2.3281   3.6759   7.6741   9.6255  13.9276  14.8894
    15.3552  16.4710  19.9830  21.1777  21.6910  22.3463  23.0841  23.9756
    25.9731  27.2175  27.5052  28.1781  29.7016  30.1323  30.8233  32.2518
    36.1319  37.2307  37.4888  38.7374  40.3597  41.3861

     occupation numbers 
     1.0000   1.0000   1.0000   1.0000   0.0000   0.0000   0.0000   0.0000
     0.0000   0.0000   0.0000   0.0000   0.0000   0.0000   0.0000   0.0000
     0.0000   0.0000   0.0000   0.0000   0.0000   0.0000   0.0000   0.0000
     0.0000   0.0000   0.0000   0.0000   0.0000   0.0000

          k = 0.6500 0.1500 0.7500 (   930 PWs)   bands (ev):

    -2.3469  -0.4194   2.3269   4.0934   8.1598  11.5790  12.1116  13.2481
    14.7218  16.2767  19.6233  20.0236  21.5394  23.8327  24.2708  24.6351
    25.2618  26.3767  27.6907  29.0522  30.5471  31.3056  31.9225  34.1741
    35.0447  35.7668  36.6338  37.6647  39.6791  40.4436

     occupation numbers 
     1.0000   1.0000   1.0000   1.0000   0.0000   0.0000   0.0000   0.0000
     0.0000   0.0000   0.0000   0.0000   0.0000   0.0000   0.0000   0.0000
     0.0000   0.0000   0.0000   0.0000   0.0000   0.0000   0.0000   0.0000
     0.0000   0.0000   0.0000   0.0000   0.0000   0.0000

          k = 0.5500 0.2500 0.6500 (   931 PWs)   bands (ev):

[...]
    13.0092  16.0049  16.0851  19.0434  20.6409  22.3502  22.6938  24.7461
    25.1991  27.9907  29.3525  30.0796  33.3378  33.5622  34.2631  36.5128
    37.1041  37.9929  38.3584  39.1225  39.6192  41.4710

     occupation numbers 
     1.0000   1.0000   1.0000   1.0000   0.0000   0.0000   0.0000   0.0000
     0.0000   0.0000   0.0000   0.0000   0.0000   0.0000   0.0000   0.0000
     0.0000   0.0000   0.0000   0.0000   0.0000   0.0000   0.0000   0.0000
     0.0000   0.0000   0.0000   0.0000   0.0000   0.0000

          k =-0.4500 0.4500 0.0500 (   921 PWs)   bands (ev):

    -3.8860   1.3567   3.0636   5.3273   9.1648  10.7736  11.0393  12.5958
    12.7474  16.8816  18.4879  18.7419  20.1717  22.3737  23.6565  24.5340
    26.0392  27.5962  28.5433  30.2827  31.7460  32.8374  34.4483  34.8654
    35.1285  36.2832  37.8709  39.3862  40.6897  41.5294

     occupation numbers 
     1.0000   1.0000   1.0000   1.0000   0.0000   0.0000   0.0000   0.0000
     0.0000   0.0000   0.0000   0.0000   0.0000   0.0000   0.0000   0.0000
     0.0000   0.0000   0.0000   0.0000   0.0000   0.0000   0.0000   0.0000
     0.0000   0.0000   0.0000   0.0000   0.0000   0.0000

          k = 0.4500-0.4500 0.9500 (   923 PWs)   bands (ev):

    -3.1431   0.4523   2.3917   4.8298   8.6363  11.6265  11.8748  13.2256
    13.2866  15.1475  19.2768  20.7603  20.9901  23.0378  23.4467  24.4892
    25.0735  27.6275  29.4572  29.6645  31.1384  32.5623  32.8516  33.1743
    34.9639  35.8056  36.0425  37.4612  41.4807  41.7596

     occupation numbers 
     1.0000   1.0000   1.0000   1.0000   0.0000   0.0000   0.0000   0.0000
     0.0000   0.0000   0.0000   0.0000   0.0000   0.0000   0.0000   0.0000
     0.0000   0.0000   0.0000   0.0000   0.0000   0.0000   0.0000   0.0000
     0.0000   0.0000   0.0000   0.0000   0.0000   0.0000

          k = 0.3500-0.3500 0.8500 (   932 PWs)   bands (ev):

    -2.5310  -0.3583   2.4263   4.4206   8.1879  11.9513  12.0276  12.9896
    14.9153  15.0157  19.1128  20.8430  21.4476  23.2100  23.6745  25.0526
    25.9678  26.7604  28.1421  28.5750  31.6524  32.1043  32.2946  32.9763
    35.0445  36.0702  36.1239  36.9068  39.7707  41.1762

     occupation numbers 
     1.0000   1.0000   1.0000   1.0000   0.0000   0.0000   0.0000   0.0000
     0.0000   0.0000   0.0000   0.0000   0.0000   0.0000   0.0000   0.0000
     0.0000   0.0000   0.0000   0.0000   0.0000   0.0000   0.0000   0.0000
     0.0000   0.0000   0.0000   0.0000   0.0000   0.0000

          k = 0.2500-0.2500 0.7500 (   932 PWs)   bands (ev):

    -2.8404   0.0352   2.8427   4.1847   7.9476  10.8947  12.2813  12.3844
    16.7596  17.0378  18.6993  19.3047  19.6612  23.4718  24.3646  25.3365
    26.0119  26.3031  26.6237  29.6161  30.5933  31.9860  32.4010  34.6402
    35.8989  36.1958  36.2397  38.0449  39.1372  41.3222

     occupation numbers 
     1.0000   1.0000   1.0000   1.0000   0.0000   0.0000   0.0000   0.0000
     0.0000   0.0000   0.0000   0.0000   0.0000   0.0000   0.0000   0.0000
     0.0000   0.0000   0.0000   0.0000   0.0000   0.0000   0.0000   0.0000
     0.0000   0.0000   0.0000   0.0000   0.0000   0.0000

          k =-0.2500 0.4500 0.2500 (   924 PWs)   bands (ev):

    -4.2154   1.3725   4.9279   4.9738   8.8010   9.8568  10.6797  12.2222
    15.2982  15.4773  16.1172  19.8935  20.4757  21.9230  23.1542  24.0388
    25.0905  28.8804  29.2849  30.3925  32.3374  32.8131  34.3727  36.3638
    37.1832  37.5385  37.8455  38.8368  39.0916  40.6671

     occupation numbers 
     1.0000   1.0000   1.0000   1.0000   0.0000   0.0000   0.0000   0.0000
     0.0000   0.0000   0.0000   0.0000   0.0000   0.0000   0.0000   0.0000
     0.0000   0.0000   0.0000   0.0000   0.0000   0.0000   0.0000   0.0000
     0.0000   0.0000   0.0000   0.0000   0.0000   0.0000

          k =-0.3500 0.5500 0.1500 (   924 PWs)   bands (ev):

    -3.7339   0.9121   3.5808   4.8621   9.2063   9.9195  11.5381  11.8049
    15.0146  16.5866  18.2731  18.6150  20.8678  21.8203  23.2169  24.8679
    25.7837  27.7184  29.1427  30.6460  31.1968  31.8526  34.2073  34.3664
    36.5286  36.7335  37.9537  38.9165  39.2600  41.0628

     occupation numbers 
     1.0000   1.0000   1.0000   1.0000   0.0000   0.0000   0.0000   0.0000
     0.0000   0.0000   0.0000   0.0000   0.0000   0.0000   0.0000   0.0000
     0.0000   0.0000   0.0000   0.0000   0.0000   0.0000   0.0000   0.0000
     0.0000   0.0000   0.0000   0.0000   0.0000   0.0000

          k = 0.5500-0.3500 1.0500 (   928 PWs)   bands (ev):

    -3.0529   0.4177   2.4506   4.3653   9.3739  10.4264  11.6619  13.0811
    14.9204  15.2312  19.4692  20.8919  20.9587  21.7780  24.0683  24.6510
    25.3494  27.7989  28.7515  29.1573  30.9510  31.4105  33.3470  34.0079
    34.4779  36.0921  37.6128  37.9590  39.0459  40.9497

     occupation numbers 
     1.0000   1.0000   1.0000   1.0000   0.0000   0.0000   0.0000   0.0000
     0.0000   0.0000   0.0000   0.0000   0.0000   0.0000   0.0000   0.0000
     0.0000   0.0000   0.0000   0.0000   0.0000   0.0000   0.0000   0.0000
     0.0000   0.0000   0.0000   0.0000   0.0000   0.0000

          k = 0.4500-0.2500 0.9500 (   925 PWs)   bands (ev):

    -2.3191  -0.2934   2.0773   3.8909   8.8446  11.3755  12.4753  12.9892
    14.1862  15.7618  20.3937  20.7977  21.9197  23.1175  23.5996  24.2931
    26.0720  26.2880  28.0224  28.9823  29.8231  31.8468  32.5592  33.6078
    34.4729  35.6664  36.4507  38.0565  39.0163  40.0241

     occupation numbers 
     1.0000   1.0000   1.0000   1.0000   0.0000   0.0000   0.0000   0.0000
     0.0000   0.0000   0.0000   0.0000   0.0000   0.0000   0.0000   0.0000
     0.0000   0.0000   0.0000   0.0000   0.0000   0.0000   0.0000   0.0000
     0.0000   0.0000   0.0000   0.0000   0.0000   0.0000

          k = 0.3500-0.1500 0.8500 (   927 PWs)   bands (ev):

    -2.2429  -0.3866   2.3551   3.6249   8.4972  10.7336  11.8898  14.3596
    14.5850  17.5262  18.7943  20.5782  21.7863  22.6139  24.3073  25.2004
    25.3085  26.0362  27.7525  28.9502  29.8450  30.4846  31.9096  34.5468
    35.0770  35.8389  37.1950  38.6162  39.3383  39.8547

     occupation numbers 
     1.0000   1.0000   1.0000   1.0000   0.0000   0.0000   0.0000   0.0000
     0.0000   0.0000   0.0000   0.0000   0.0000   0.0000   0.0000   0.0000
     0.0000   0.0000   0.0000   0.0000   0.0000   0.0000   0.0000   0.0000
     0.0000   0.0000   0.0000   0.0000   0.0000   0.0000

          k =-0.2500 0.6500 0.2500 (   923 PWs)   bands (ev):

    -3.3509   0.4508   3.4945   4.3929   8.2345  11.1547  11.4244  11.7358
    16.7525  17.3703  18.2322  18.3149  19.5442  22.6195  24.0360  25.1406
    25.8965  26.8003  28.1958  29.7121  31.2698  32.7682  33.4860  34.1178
    35.9085  36.4398  37.4684  37.7085  39.4384  41.3458

     occupation numbers 
     1.0000   1.0000   1.0000   1.0000   0.0000   0.0000   0.0000   0.0000
     0.0000   0.0000   0.0000   0.0000   0.0000   0.0000   0.0000   0.0000
     0.0000   0.0000   0.0000   0.0000   0.0000   0.0000   0.0000   0.0000
     0.0000   0.0000   0.0000   0.0000   0.0000   0.0000

          k = 0.6500-0.2500 1.1500 (   927 PWs)   bands (ev):

    -2.7662   0.0393   2.7170   3.8987   8.6759  10.8164  11.2808  13.4253
    15.5071  17.3132  18.5342  19.9238  20.6706  22.6800  24.4723  24.9508
    25.7351  26.7998  27.5524  29.4953  30.0926  30.9451  33.0308  34.7326
    35.6863  36.0386  36.3181  38.9255  39.2121  39.7763

     occupation numbers 
     1.0000   1.0000   1.0000   1.0000   0.0000   0.0000   0.0000   0.0000
     0.0000   0.0000   0.0000   0.0000   0.0000   0.0000   0.0000   0.0000
     0.0000   0.0000   0.0000   0.0000   0.0000   0.0000   0.0000   0.0000
     0.0000   0.0000   0.0000   0.0000   0.0000   0.0000

          k = 0.5500-0.1500 1.0500 (   924 PWs)   bands (ev):

    -2.0474  -0.4713   2.2523   3.1889  10.0616  10.4556  11.1993  13.1903
    15.3391  17.2698  19.3160  21.0156  21.6196  23.3106  23.5137  25.3383
    25.8895  26.6121  27.2682  27.5765  29.6354  31.3268  32.2846  34.4613
    35.3647  35.6462  36.3781  37.5353  38.3896  39.8207

     occupation numbers 
     1.0000   1.0000   1.0000   1.0000   0.0000   0.0000   0.0000   0.0000
     0.0000   0.0000   0.0000   0.0000   0.0000   0.0000   0.0000   0.0000
     0.0000   0.0000   0.0000   0.0000   0.0000   0.0000   0.0000   0.0000
     0.0000   0.0000   0.0000   0.0000   0.0000   0.0000

          k = 0.4500-0.0500 0.9500 (   928 PWs)   bands (ev):

    -1.5609  -0.9098   2.3154   2.8057  10.0247  10.7344  11.5160  12.2805
    16.3747  17.5550  19.1398  20.3857  22.3505  23.5398  24.4964  24.9378
    25.7014  26.1951  26.3530  27.3977  29.8442  31.0446  32.8017  34.1380
    34.5797  35.6290  36.1048  36.9808  39.4426  40.0174

     occupation numbers 
     1.0000   1.0000   1.0000   1.0000   0.0000   0.0000   0.0000   0.0000
     0.0000   0.0000   0.0000   0.0000   0.0000   0.0000   0.0000   0.0000
     0.0000   0.0000   0.0000   0.0000   0.0000   0.0000   0.0000   0.0000
     0.0000   0.0000   0.0000   0.0000   0.0000   0.0000

          k =-0.2500-1.1500 0.2500 (   936 PWs)   bands (ev):

    -2.3172  -0.3762   2.3463   4.0425   7.7436  10.6915  13.1013  13.2208
    16.0205  16.0837  19.8838  20.3269  20.5743  23.6108  23.9451  24.7615
    25.6628  26.5040  26.6653  29.8136  30.4193  30.4386  31.0809  34.6156
    35.8523  35.8664  36.1832  38.4798  39.6596  41.3652

     occupation numbers 
     1.0000   1.0000   1.0000   1.0000   0.0000   0.0000   0.0000   0.0000
     0.0000   0.0000   0.0000   0.0000   0.0000   0.0000   0.0000   0.0000
     0.0000   0.0000   0.0000   0.0000   0.0000   0.0000   0.0000   0.0000
     0.0000   0.0000   0.0000   0.0000   0.0000   0.0000

          k =-0.3500-1.0500 0.1500 (   930 PWs)   bands (ev):

    -1.7984  -0.7675   2.1461   3.4950   8.4054  10.6470  12.6702  13.6157
    15.3102  16.6978  19.8042  21.2973  21.9508  22.8926  23.6221  24.4079
    25.6452  26.3633  27.3998  28.8128  29.3600  30.8469  31.6327  33.1160
    35.2480  35.6050  38.1296  38.3615  39.4087  39.7087

     occupation numbers 
     1.0000   1.0000   1.0000   1.0000   0.0000   0.0000   0.0000   0.0000
     0.0000   0.0000   0.0000   0.0000   0.0000   0.0000   0.0000   0.0000
     0.0000   0.0000   0.0000   0.0000   0.0000   0.0000   0.0000   0.0000
     0.0000   0.0000   0.0000   0.0000   0.0000   0.0000

          k =-0.2500-0.9500 0.2500 (   933 PWs)   bands (ev):

    -1.8854  -0.7357   2.0779   3.9704   7.6387  10.5902  13.8092  14.1703
    15.1515  15.1795  21.0731  21.2703  21.6758  22.4718  23.1532  23.8270
    26.1762  26.7316  27.6027  28.9419  29.5829  30.0351  31.5322  33.1234
    35.7789  36.2492  36.4702  38.2305  41.4579  41.5202

     occupation numbers 
     1.0000   1.0000   1.0000   1.0000   0.0000   0.0000   0.0000   0.0000
     0.0000   0.0000   0.0000   0.0000   0.0000   0.0000   0.0000   0.0000
     0.0000   0.0000   0.0000   0.0000   0.0000   0.0000   0.0000   0.0000
     0.0000   0.0000   0.0000   0.0000   0.0000   0.0000

          k =-0.3500 0.3500 0.3500 (   926 PWs)   bands (ev):

    -4.0772   0.8083   5.3715   5.3715   8.2620   9.9179   9.9179  14.3929
    14.6737  14.6737  15.9329  20.5197  20.8709  20.8709  23.3515  24.5994
    24.5994  29.0224  30.9240  30.9240  31.5316  33.7097  33.7097  35.7005
    35.7005  36.9969  37.0487  39.8384  39.8384  40.8220

     occupation numbers 
     1.0000   1.0000   1.0000   1.0000   0.0000   0.0000   0.0000   0.0000
     0.0000   0.0000   0.0000   0.0000   0.0000   0.0000   0.0000   0.0000
     0.0000   0.0000   0.0000   0.0000   0.0000   0.0000   0.0000   0.0000
     0.0000   0.0000   0.0000   0.0000   0.0000   0.0000

          k =-0.4500 0.4500 0.2500 (   924 PWs)   bands (ev):

    -3.7033   0.3887   4.3062   5.3172   8.8223  10.0052  10.0843  14.1473
    14.2178  15.7448  17.8509  18.5541  21.3021  21.3242  23.2524  24.5135
    26.4212  29.6006  29.7422  30.1101  30.8408  32.2271  34.3400  35.0753
    35.1400  36.7942  37.7633  38.3241  39.3234  40.7530

     occupation numbers 
     1.0000   1.0000   1.0000   1.0000   0.0000   0.0000   0.0000   0.0000
     0.0000   0.0000   0.0000   0.0000   0.0000   0.0000   0.0000   0.0000
     0.0000   0.0000   0.0000   0.0000   0.0000   0.0000   0.0000   0.0000
     0.0000   0.0000   0.0000   0.0000   0.0000   0.0000

          k = 0.4500-0.4500 1.1500 (   927 PWs)   bands (ev):

    -3.1239   0.1096   2.8987   4.8698   8.6939  11.0941  11.1261  14.0027
    14.0493  15.1319  18.2199  20.7212  21.7702  21.7784  22.9183  25.2843
    26.2471  27.9987  29.0406  29.2906  30.9026  32.8856  33.6041  33.6653
    34.4379  35.1374  36.1610  38.7179  40.2096  41.1107

     occupation numbers 
     1.0000   1.0000   1.0000   1.0000   0.0000   0.0000   0.0000   0.0000
     0.0000   0.0000   0.0000   0.0000   0.0000   0.0000   0.0000   0.0000
     0.0000   0.0000   0.0000   0.0000   0.0000   0.0000   0.0000   0.0000
     0.0000   0.0000   0.0000   0.0000   0.0000   0.0000

          k = 0.3500-0.3500 1.0500 (   930 PWs)   bands (ev):

    -2.4103  -0.2578   2.0122   4.3593   8.0930  12.4561  12.6449  13.2885
    14.1107  14.1583  20.3037  21.7300  22.1096  22.5064  23.7454  23.8385
    25.4369  26.6506  28.8670  29.1179  30.3793  31.1465  32.8398  33.5396
    34.9959  35.5863  36.0128  36.1442  41.5529  41.7660

     occupation numbers 
     1.0000   1.0000   1.0000   1.0000   0.0000   0.0000   0.0000   0.0000
     0.0000   0.0000   0.0000   0.0000   0.0000   0.0000   0.0000   0.0000
     0.0000   0.0000   0.0000   0.0000   0.0000   0.0000   0.0000   0.0000
     0.0000   0.0000   0.0000   0.0000   0.0000   0.0000

          k =-0.3500 0.5500 0.3500 (   924 PWs)   bands (ev):

    -3.4532  -0.0248   4.5653   4.9179   8.6785   9.7652  10.4023  13.6104
    15.3330  16.8292  17.7397  18.4040  19.3295  21.8508  24.0135  25.3822
    26.8252  28.6214  29.3273  30.1316  31.5691  31.6961  34.0861  34.6159
    35.1848  36.9872  37.2877  37.9593  39.0752  40.1438

     occupation numbers 
     1.0000   1.0000   1.0000   1.0000   0.0000   0.0000   0.0000   0.0000
     0.0000   0.0000   0.0000   0.0000   0.0000   0.0000   0.0000   0.0000
     0.0000   0.0000   0.0000   0.0000   0.0000   0.0000   0.0000   0.0000
     0.0000   0.0000   0.0000   0.0000   0.0000   0.0000

          k = 0.5500-0.3500 1.2500 (   928 PWs)   bands (ev):

    -3.0160  -0.2410   3.4529   4.5959   9.2593   9.5840  11.5039  13.3993
    15.2354  16.4021  17.8199  19.3059  20.3680  22.3527  24.1607  26.0751
    26.6916  27.3113  28.7700  29.0152  30.9291  32.9633  33.4719  33.5033
    34.4469  36.2813  37.2825  38.2082  38.5557  40.5249

     occupation numbers 
     1.0000   1.0000   1.0000   1.0000   0.0000   0.0000   0.0000   0.0000
     0.0000   0.0000   0.0000   0.0000   0.0000   0.0000   0.0000   0.0000
     0.0000   0.0000   0.0000   0.0000   0.0000   0.0000   0.0000   0.0000
     0.0000   0.0000   0.0000   0.0000   0.0000   0.0000

          k = 0.4500-0.2500 1.1500 (   932 PWs)   bands (ev):

    -2.4430  -0.3649   2.4185   4.0018   8.9309  10.6987  12.9002  13.2887
    13.5476  16.5716  19.1366  19.8885  22.6914  23.1530  23.6527  24.5384
    25.9771  26.9129  27.7811  28.8294  30.5432  32.3381  32.4556  32.8154
    34.8584  36.2577  37.0390  37.6547  38.9930  39.9660

     occupation numbers 
     1.0000   1.0000   1.0000   1.0000   0.0000   0.0000   0.0000   0.0000
     0.0000   0.0000   0.0000   0.0000   0.0000   0.0000   0.0000   0.0000
     0.0000   0.0000   0.0000   0.0000   0.0000   0.0000   0.0000   0.0000
     0.0000   0.0000   0.0000   0.0000   0.0000   0.0000

          k =-0.3500-1.2500 0.3500 (   930 PWs)   bands (ev):

    -2.7725  -0.3916   3.0767   4.5397   8.3655  11.1355  11.3926  13.0794
    15.6890  15.9195  18.2970  19.5254  20.3669  22.8249  25.2444  25.5639
    26.0337  27.4288  27.5807  28.6965  31.3150  32.9017  33.2921  33.3285
    34.4858  36.1310  36.5658  37.8811  38.3998  40.9317

     occupation numbers 
     1.0000   1.0000   1.0000   1.0000   0.0000   0.0000   0.0000   0.0000
     0.0000   0.0000   0.0000   0.0000   0.0000   0.0000   0.0000   0.0000
     0.0000   0.0000   0.0000   0.0000   0.0000   0.0000   0.0000   0.0000
     0.0000   0.0000   0.0000   0.0000   0.0000   0.0000

          k =-0.4500 0.4500 0.4500 (   932 PWs)   bands (ev):

    -3.3638  -0.3999   5.2277   5.2277   8.1024   9.7841   9.7841  14.2300
    16.3493  16.3493  17.5207  18.6497  18.6497  20.1328  24.8341  27.1246
    27.1246  28.0380  29.6817  29.6817  31.7867  33.3475  33.3475  34.4318
    34.4318  35.7078  37.4857  39.4353  39.4353  40.0120

     occupation numbers 
     1.0000   1.0000   1.0000   1.0000   0.0000   0.0000   0.0000   0.0000
     0.0000   0.0000   0.0000   0.0000   0.0000   0.0000   0.0000   0.0000
     0.0000   0.0000   0.0000   0.0000   0.0000   0.0000   0.0000   0.0000
     0.0000   0.0000   0.0000   0.0000   0.0000   0.0000

          k = 0.4500-0.4500 1.3500 (   928 PWs)   bands (ev):

    -3.1237  -0.5145   4.3474   5.0400   8.6766   9.7972  10.1760  14.6225
    15.7132  16.0317  17.5352  19.0513  19.4740  20.4490  25.4631  26.7412
    27.4016  28.0093  28.5639  29.0544  31.8972  32.5234  32.9840  34.7195
    34.7529  35.9205  37.3514  37.3640  39.3196  40.3491

     occupation numbers 
     1.0000   1.0000   1.0000   1.0000   0.0000   0.0000   0.0000   0.0000
     0.0000   0.0000   0.0000   0.0000   0.0000   0.0000   0.0000   0.0000
     0.0000   0.0000   0.0000   0.0000   0.0000   0.0000   0.0000   0.0000
     0.0000   0.0000   0.0000   0.0000   0.0000   0.0000

     highest occupied, lowest unoccupied level (ev):     6.3640    7.0969

     Writing output data file Si_bulk.save/

     init_run     :      0.06s CPU      0.10s WALL (       1 calls)
     electrons    :     36.17s CPU     36.75s WALL (       1 calls)

     Called by init_run:
     wfcinit      :      0.00s CPU      0.00s WALL (       1 calls)
     wfcinit:atom :      0.02s CPU      0.02s WALL (     110 calls)
     wfcinit:wfcr :      1.92s CPU      1.99s WALL (     110 calls)
     potinit      :      0.01s CPU      0.02s WALL (       1 calls)
     hinit0       :      0.04s CPU      0.04s WALL (       1 calls)

     Called by electrons:
     c_bands      :     36.16s CPU     36.74s WALL (       1 calls)
     v_of_rho     :      0.01s CPU      0.01s WALL (       1 calls)
     v_h          :      0.00s CPU      0.00s WALL (       1 calls)
     v_xc         :      0.01s CPU      0.01s WALL (       1 calls)

     Called by c_bands:
     init_us_2    :      0.02s CPU      0.02s WALL (     110 calls)
     cegterg      :     34.10s CPU     34.57s WALL (     151 calls)

     Called by sum_band:

     Called by *egterg:
     h_psi        :     20.55s CPU     22.90s WALL (    2425 calls)
     g_psi        :      0.12s CPU      0.17s WALL (    2164 calls)
     cdiaghg      :      5.91s CPU      6.70s WALL (    2274 calls)
     cegterg:over :      4.05s CPU      2.80s WALL (    2164 calls)
     cegterg:upda :      3.00s CPU      2.25s WALL (    2164 calls)
     cegterg:last :      1.90s CPU      1.18s WALL (     481 calls)

     Called by h_psi:
     h_psi:pot    :     20.49s CPU     22.84s WALL (    2425 calls)
     h_psi:calbec :      0.31s CPU      0.33s WALL (    2425 calls)
     vloc_psi     :     19.78s CPU     22.14s WALL (    2425 calls)
     add_vuspsi   :      0.40s CPU      0.35s WALL (    2425 calls)

     General routines
     calbec       :      0.31s CPU      0.33s WALL (    2425 calls)
     fft          :      0.00s CPU      0.00s WALL (      10 calls)
     fftw         :     17.03s CPU     19.10s WALL (   81118 calls)
     davcio       :      0.00s CPU      0.04s WALL (     220 calls)


     PWSCF        :     36.36s CPU     37.31s WALL


   This run was terminated on:  11:36:59   3May2021            

=------------------------------------------------------------------------------=
   JOB DONE.
=------------------------------------------------------------------------------=
