
     Program PWSCF v.6.4.1 starts on  3May2021 at 11:23:15 

     This program is part of the open-source Quantum ESPRESSO suite
     for quantum simulation of materials; please cite
         "P. Giannozzi et al., J. Phys.:Condens. Matter 21 395502 (2009);
         "P. Giannozzi et al., J. Phys.:Condens. Matter 29 465901 (2017);
          URL http://www.quantum-espresso.org", 
     in publications or presentations arising from this work. More details at
     http://www.quantum-espresso.org/quote

     Serial version
     Waiting for input...
     Reading input from standard input
     Message from routine read_cards :
     DEPRECATED: no units specified in ATOMIC_POSITIONS card
     Message from routine read_cards :
     ATOMIC_POSITIONS: units set to alat

     Current dimensions of program PWSCF are:
     Max number of different atomic species (ntypx) = 10
     Max number of k-points (npk) =  40000
     Max angular momentum in pseudopotentials (lmaxx) =  3

     Atomic positions and unit cell read from directory:
     ./tmp/Si_bulk.save/


     G-vector sticks info
     --------------------
     sticks:   dense  smooth     PW     G-vecs:    dense   smooth      PW
     Sum         499     499    163                 7391     7391    1459



     bravais-lattice index     =            2
     lattice parameter (alat)  =      10.2000  a.u.
     unit-cell volume          =     265.3020 (a.u.)^3
     number of atoms/cell      =            2
     number of atomic types    =            1
     number of electrons       =         8.00
     number of Kohn-Sham states=            5
     kinetic-energy cutoff     =      35.0000  Ry
     charge density cutoff     =     140.0000  Ry
     Exchange-correlation      =  SLA  PW   PBE  PBE ( 1  4  3  4 0 0)

     celldm(1)=  10.200000  celldm(2)=   0.000000  celldm(3)=   0.000000
     celldm(4)=   0.000000  celldm(5)=   0.000000  celldm(6)=   0.000000

     crystal axes: (cart. coord. in units of alat)
               a(1) = (  -0.500000   0.000000   0.500000 )  
               a(2) = (   0.000000   0.500000   0.500000 )  
               a(3) = (  -0.500000   0.500000   0.000000 )  

     reciprocal axes: (cart. coord. in units 2 pi/alat)
               b(1) = ( -1.000000 -1.000000  1.000000 )  
               b(2) = (  1.000000  1.000000  1.000000 )  
               b(3) = ( -1.000000  1.000000 -1.000000 )  


     PseudoPot. # 1 for Si read from file:
     ../../Pseudo/Si.pbe-rrkj.UPF
     MD5 check sum: cf7ab5690cd9a85b22c4813f7e365554
     Pseudo is Norm-conserving, Zval =  4.0
     Generated by new atomic code, or converted to UPF format
     Using radial grid of  883 points,  3 beta functions with: 
                l(1) =   0
                l(2) =   0
                l(3) =   1

     atomic species   valence    mass     pseudopotential
        Si             4.00    28.08550     Si( 1.00)

     48 Sym. Ops., with inversion, found (24 have fractional translation)


                                    s                        frac. trans.

      isym =  1     identity                                     

 cryst.   s( 1) = (     1          0          0      )
                  (     0          1          0      )
                  (     0          0          1      )

 cart.    s( 1) = (  1.0000000  0.0000000  0.0000000 )
                  (  0.0000000  1.0000000  0.0000000 )
                  (  0.0000000  0.0000000  1.0000000 )


      isym =  2     180 deg rotation - cart. axis [0,0,1]        

 cryst.   s( 2) = (     0          1         -1      )
                  (     1          0         -1      )
                  (     0          0         -1      )

 cart.    s( 2) = ( -1.0000000  0.0000000  0.0000000 )
                  (  0.0000000 -1.0000000  0.0000000 )
                  (  0.0000000  0.0000000  1.0000000 )


      isym =  3     180 deg rotation - cart. axis [0,1,0]        

 cryst.   s( 3) = (    -1          0          0      )
                  (    -1          0          1      )
                  (    -1          1          0      )

 cart.    s( 3) = ( -1.0000000  0.0000000  0.0000000 )
                  (  0.0000000  1.0000000  0.0000000 )
                  (  0.0000000  0.0000000 -1.0000000 )


      isym =  4     180 deg rotation - cart. axis [1,0,0]        

 cryst.   s( 4) = (     0         -1          1      )
                  (     0         -1          0      )
                  (     1         -1          0      )

 cart.    s( 4) = (  1.0000000  0.0000000  0.0000000 )
                  (  0.0000000 -1.0000000  0.0000000 )
                  (  0.0000000  0.0000000 -1.0000000 )


      isym =  5     180 deg rotation - cart. axis [1,1,0]        

 cryst.   s( 5) = (     0         -1          0      )    f =(  0.2500000 )
                  (    -1          0          0      )       (  0.2500000 )
                  (     0          0         -1      )       (  0.2500000 )

 cart.    s( 5) = (  0.0000000  1.0000000  0.0000000 )    f =( -0.2500000 )
                  (  1.0000000  0.0000000  0.0000000 )       (  0.2500000 )
                  (  0.0000000  0.0000000 -1.0000000 )       (  0.2500000 )


      isym =  6     180 deg rotation - cart. axis [1,-1,0]       

 cryst.   s( 6) = (    -1          0          1      )    f =(  0.2500000 )
                  (     0         -1          1      )       (  0.2500000 )
                  (     0          0          1      )       (  0.2500000 )

 cart.    s( 6) = (  0.0000000 -1.0000000  0.0000000 )    f =( -0.2500000 )
                  ( -1.0000000  0.0000000  0.0000000 )       (  0.2500000 )
                  (  0.0000000  0.0000000 -1.0000000 )       (  0.2500000 )


      isym =  7      90 deg rotation - cart. axis [0,0,-1]       

 cryst.   s( 7) = (     0          1          0      )    f =(  0.2500000 )
                  (     0          1         -1      )       (  0.2500000 )
                  (    -1          1          0      )       (  0.2500000 )

 cart.    s( 7) = (  0.0000000  1.0000000  0.0000000 )    f =( -0.2500000 )
                  ( -1.0000000  0.0000000  0.0000000 )       (  0.2500000 )
                  (  0.0000000  0.0000000  1.0000000 )       (  0.2500000 )


      isym =  8      90 deg rotation - cart. axis [0,0,1]        

 cryst.   s( 8) = (     1          0         -1      )    f =(  0.2500000 )
                  (     1          0          0      )       (  0.2500000 )
                  (     1         -1          0      )       (  0.2500000 )

 cart.    s( 8) = (  0.0000000 -1.0000000  0.0000000 )    f =( -0.2500000 )
                  (  1.0000000  0.0000000  0.0000000 )       (  0.2500000 )
                  (  0.0000000  0.0000000  1.0000000 )       (  0.2500000 )


      isym =  9     180 deg rotation - cart. axis [1,0,1]        

 cryst.   s( 9) = (    -1          0          0      )    f =(  0.2500000 )
                  (     0          0         -1      )       (  0.2500000 )
                  (     0         -1          0      )       (  0.2500000 )

 cart.    s( 9) = (  0.0000000  0.0000000  1.0000000 )    f =( -0.2500000 )
                  (  0.0000000 -1.0000000  0.0000000 )       (  0.2500000 )
                  (  1.0000000  0.0000000  0.0000000 )       (  0.2500000 )


      isym = 10     180 deg rotation - cart. axis [-1,0,1]       

 cryst.   s(10) = (     1          0          0      )    f =(  0.2500000 )
                  (     1         -1          0      )       (  0.2500000 )
                  (     1          0         -1      )       (  0.2500000 )

 cart.    s(10) = (  0.0000000  0.0000000 -1.0000000 )    f =( -0.2500000 )
                  (  0.0000000 -1.0000000  0.0000000 )       (  0.2500000 )
                  ( -1.0000000  0.0000000  0.0000000 )       (  0.2500000 )


      isym = 11      90 deg rotation - cart. axis [0,1,0]        

 cryst.   s(11) = (     0          1         -1      )    f =(  0.2500000 )
                  (    -1          1          0      )       (  0.2500000 )
                  (     0          1          0      )       (  0.2500000 )

 cart.    s(11) = (  0.0000000  0.0000000  1.0000000 )    f =( -0.2500000 )
                  (  0.0000000  1.0000000  0.0000000 )       (  0.2500000 )
                  ( -1.0000000  0.0000000  0.0000000 )       (  0.2500000 )


      isym = 12      90 deg rotation - cart. axis [0,-1,0]       

 cryst.   s(12) = (     0         -1          1      )    f =(  0.2500000 )
                  (     0          0          1      )       (  0.2500000 )
                  (    -1          0          1      )       (  0.2500000 )

 cart.    s(12) = (  0.0000000  0.0000000 -1.0000000 )    f =( -0.2500000 )
                  (  0.0000000  1.0000000  0.0000000 )       (  0.2500000 )
                  (  1.0000000  0.0000000  0.0000000 )       (  0.2500000 )


      isym = 13     180 deg rotation - cart. axis [0,1,1]        

 cryst.   s(13) = (    -1          1          0      )    f =(  0.2500000 )
                  (     0          1          0      )       (  0.2500000 )
                  (     0          1         -1      )       (  0.2500000 )

 cart.    s(13) = ( -1.0000000  0.0000000  0.0000000 )    f =( -0.2500000 )
                  (  0.0000000  0.0000000  1.0000000 )       (  0.2500000 )
                  (  0.0000000  1.0000000  0.0000000 )       (  0.2500000 )


      isym = 14     180 deg rotation - cart. axis [0,1,-1]       

 cryst.   s(14) = (     0          0         -1      )    f =(  0.2500000 )
                  (     0         -1          0      )       (  0.2500000 )
                  (    -1          0          0      )       (  0.2500000 )

 cart.    s(14) = ( -1.0000000  0.0000000  0.0000000 )    f =( -0.2500000 )
                  (  0.0000000  0.0000000 -1.0000000 )       (  0.2500000 )
                  (  0.0000000 -1.0000000  0.0000000 )       (  0.2500000 )


      isym = 15      90 deg rotation - cart. axis [-1,0,0]       

 cryst.   s(15) = (     0          0          1      )    f =(  0.2500000 )
                  (    -1          0          1      )       (  0.2500000 )
                  (     0         -1          1      )       (  0.2500000 )

 cart.    s(15) = (  1.0000000  0.0000000  0.0000000 )    f =( -0.2500000 )
                  (  0.0000000  0.0000000  1.0000000 )       (  0.2500000 )
                  (  0.0000000 -1.0000000  0.0000000 )       (  0.2500000 )


      isym = 16      90 deg rotation - cart. axis [1,0,0]        

 cryst.   s(16) = (     1         -1          0      )    f =(  0.2500000 )
                  (     1          0         -1      )       (  0.2500000 )
                  (     1          0          0      )       (  0.2500000 )

 cart.    s(16) = (  1.0000000  0.0000000  0.0000000 )    f =( -0.2500000 )
                  (  0.0000000  0.0000000 -1.0000000 )       (  0.2500000 )
                  (  0.0000000  1.0000000  0.0000000 )       (  0.2500000 )


      isym = 17     120 deg rotation - cart. axis [-1,-1,-1]     

 cryst.   s(17) = (    -1          0          1      )
                  (    -1          1          0      )
                  (    -1          0          0      )

 cart.    s(17) = (  0.0000000  1.0000000  0.0000000 )
                  (  0.0000000  0.0000000  1.0000000 )
                  (  1.0000000  0.0000000  0.0000000 )


      isym = 18     120 deg rotation - cart. axis [-1,1,1]       

 cryst.   s(18) = (     0          1          0      )
                  (     0          0          1      )
                  (     1          0          0      )

 cart.    s(18) = (  0.0000000 -1.0000000  0.0000000 )
                  (  0.0000000  0.0000000  1.0000000 )
                  ( -1.0000000  0.0000000  0.0000000 )


      isym = 19     120 deg rotation - cart. axis [1,1,-1]       

 cryst.   s(19) = (     1          0         -1      )
                  (     0          0         -1      )
                  (     0          1         -1      )

 cart.    s(19) = (  0.0000000  1.0000000  0.0000000 )
                  (  0.0000000  0.0000000 -1.0000000 )
                  ( -1.0000000  0.0000000  0.0000000 )


      isym = 20     120 deg rotation - cart. axis [1,-1,1]       

 cryst.   s(20) = (     0         -1          0      )
                  (     1         -1          0      )
                  (     0         -1          1      )

 cart.    s(20) = (  0.0000000 -1.0000000  0.0000000 )
                  (  0.0000000  0.0000000 -1.0000000 )
                  (  1.0000000  0.0000000  0.0000000 )


      isym = 21     120 deg rotation - cart. axis [1,1,1]        

 cryst.   s(21) = (     0          0         -1      )
                  (     0          1         -1      )
                  (     1          0         -1      )

 cart.    s(21) = (  0.0000000  0.0000000  1.0000000 )
                  (  1.0000000  0.0000000  0.0000000 )
                  (  0.0000000  1.0000000  0.0000000 )


      isym = 22     120 deg rotation - cart. axis [-1,1,-1]      

 cryst.   s(22) = (    -1          1          0      )
                  (    -1          0          0      )
                  (    -1          0          1      )

 cart.    s(22) = (  0.0000000  0.0000000  1.0000000 )
                  ( -1.0000000  0.0000000  0.0000000 )
                  (  0.0000000 -1.0000000  0.0000000 )


      isym = 23     120 deg rotation - cart. axis [1,-1,-1]      

 cryst.   s(23) = (     0          0          1      )
                  (     1          0          0      )
                  (     0          1          0      )

 cart.    s(23) = (  0.0000000  0.0000000 -1.0000000 )
                  ( -1.0000000  0.0000000  0.0000000 )
                  (  0.0000000  1.0000000  0.0000000 )


      isym = 24     120 deg rotation - cart. axis [-1,-1,1]      

 cryst.   s(24) = (     1         -1          0      )
                  (     0         -1          1      )
                  (     0         -1          0      )

 cart.    s(24) = (  0.0000000  0.0000000 -1.0000000 )
                  (  1.0000000  0.0000000  0.0000000 )
                  (  0.0000000 -1.0000000  0.0000000 )


      isym = 25     inversion                                    

 cryst.   s(25) = (    -1          0          0      )    f =(  0.2500000 )
                  (     0         -1          0      )       (  0.2500000 )
                  (     0          0         -1      )       (  0.2500000 )

 cart.    s(25) = ( -1.0000000  0.0000000  0.0000000 )    f =( -0.2500000 )
                  (  0.0000000 -1.0000000  0.0000000 )       (  0.2500000 )
                  (  0.0000000  0.0000000 -1.0000000 )       (  0.2500000 )


      isym = 26     inv. 180 deg rotation - cart. axis [0,0,1]   

 cryst.   s(26) = (     0         -1          1      )    f =(  0.2500000 )
                  (    -1          0          1      )       (  0.2500000 )
                  (     0          0          1      )       (  0.2500000 )

 cart.    s(26) = (  1.0000000  0.0000000  0.0000000 )    f =( -0.2500000 )
                  (  0.0000000  1.0000000  0.0000000 )       (  0.2500000 )
                  (  0.0000000  0.0000000 -1.0000000 )       (  0.2500000 )


      isym = 27     inv. 180 deg rotation - cart. axis [0,1,0]   

 cryst.   s(27) = (     1          0          0      )    f =(  0.2500000 )
                  (     1          0         -1      )       (  0.2500000 )
                  (     1         -1          0      )       (  0.2500000 )

 cart.    s(27) = (  1.0000000  0.0000000  0.0000000 )    f =( -0.2500000 )
                  (  0.0000000 -1.0000000  0.0000000 )       (  0.2500000 )
                  (  0.0000000  0.0000000  1.0000000 )       (  0.2500000 )


      isym = 28     inv. 180 deg rotation - cart. axis [1,0,0]   

 cryst.   s(28) = (     0          1         -1      )    f =(  0.2500000 )
                  (     0          1          0      )       (  0.2500000 )
                  (    -1          1          0      )       (  0.2500000 )

 cart.    s(28) = ( -1.0000000  0.0000000  0.0000000 )    f =( -0.2500000 )
                  (  0.0000000  1.0000000  0.0000000 )       (  0.2500000 )
                  (  0.0000000  0.0000000  1.0000000 )       (  0.2500000 )


      isym = 29     inv. 180 deg rotation - cart. axis [1,1,0]   

 cryst.   s(29) = (     0          1          0      )
                  (     1          0          0      )
                  (     0          0          1      )

 cart.    s(29) = (  0.0000000 -1.0000000  0.0000000 )
                  ( -1.0000000  0.0000000  0.0000000 )
                  (  0.0000000  0.0000000  1.0000000 )


      isym = 30     inv. 180 deg rotation - cart. axis [1,-1,0]  

 cryst.   s(30) = (     1          0         -1      )
                  (     0          1         -1      )
                  (     0          0         -1      )

 cart.    s(30) = (  0.0000000  1.0000000  0.0000000 )
                  (  1.0000000  0.0000000  0.0000000 )
                  (  0.0000000  0.0000000  1.0000000 )


      isym = 31     inv.  90 deg rotation - cart. axis [0,0,-1]  

 cryst.   s(31) = (     0         -1          0      )
                  (     0         -1          1      )
                  (     1         -1          0      )

 cart.    s(31) = (  0.0000000 -1.0000000  0.0000000 )
                  (  1.0000000  0.0000000  0.0000000 )
                  (  0.0000000  0.0000000 -1.0000000 )


      isym = 32     inv.  90 deg rotation - cart. axis [0,0,1]   

 cryst.   s(32) = (    -1          0          1      )
                  (    -1          0          0      )
                  (    -1          1          0      )

 cart.    s(32) = (  0.0000000  1.0000000  0.0000000 )
                  ( -1.0000000  0.0000000  0.0000000 )
                  (  0.0000000  0.0000000 -1.0000000 )


      isym = 33     inv. 180 deg rotation - cart. axis [1,0,1]   

 cryst.   s(33) = (     1          0          0      )
                  (     0          0          1      )
                  (     0          1          0      )

 cart.    s(33) = (  0.0000000  0.0000000 -1.0000000 )
                  (  0.0000000  1.0000000  0.0000000 )
                  ( -1.0000000  0.0000000  0.0000000 )


      isym = 34     inv. 180 deg rotation - cart. axis [-1,0,1]  

 cryst.   s(34) = (    -1          0          0      )
                  (    -1          1          0      )
                  (    -1          0          1      )

 cart.    s(34) = (  0.0000000  0.0000000  1.0000000 )
                  (  0.0000000  1.0000000  0.0000000 )
                  (  1.0000000  0.0000000  0.0000000 )


      isym = 35     inv.  90 deg rotation - cart. axis [0,1,0]   

 cryst.   s(35) = (     0         -1          1      )
                  (     1         -1          0      )
                  (     0         -1          0      )

 cart.    s(35) = (  0.0000000  0.0000000 -1.0000000 )
                  (  0.0000000 -1.0000000  0.0000000 )
                  (  1.0000000  0.0000000  0.0000000 )


      isym = 36     inv.  90 deg rotation - cart. axis [0,-1,0]  

 cryst.   s(36) = (     0          1         -1      )
                  (     0          0         -1      )
                  (     1          0         -1      )

 cart.    s(36) = (  0.0000000  0.0000000  1.0000000 )
                  (  0.0000000 -1.0000000  0.0000000 )
                  ( -1.0000000  0.0000000  0.0000000 )


      isym = 37     inv. 180 deg rotation - cart. axis [0,1,1]   

 cryst.   s(37) = (     1         -1          0      )
                  (     0         -1          0      )
                  (     0         -1          1      )

 cart.    s(37) = (  1.0000000  0.0000000  0.0000000 )
                  (  0.0000000  0.0000000 -1.0000000 )
                  (  0.0000000 -1.0000000  0.0000000 )


      isym = 38     inv. 180 deg rotation - cart. axis [0,1,-1]  

 cryst.   s(38) = (     0          0          1      )
                  (     0          1          0      )
                  (     1          0          0      )

 cart.    s(38) = (  1.0000000  0.0000000  0.0000000 )
                  (  0.0000000  0.0000000  1.0000000 )
                  (  0.0000000  1.0000000  0.0000000 )


      isym = 39     inv.  90 deg rotation - cart. axis [-1,0,0]  

 cryst.   s(39) = (     0          0         -1      )
                  (     1          0         -1      )
                  (     0          1         -1      )

 cart.    s(39) = ( -1.0000000  0.0000000  0.0000000 )
                  (  0.0000000  0.0000000 -1.0000000 )
                  (  0.0000000  1.0000000  0.0000000 )


      isym = 40     inv.  90 deg rotation - cart. axis [1,0,0]   

 cryst.   s(40) = (    -1          1          0      )
                  (    -1          0          1      )
                  (    -1          0          0      )

 cart.    s(40) = ( -1.0000000  0.0000000  0.0000000 )
                  (  0.0000000  0.0000000  1.0000000 )
                  (  0.0000000 -1.0000000  0.0000000 )


      isym = 41     inv. 120 deg rotation - cart. axis [-1,-1,-1]

 cryst.   s(41) = (     1          0         -1      )    f =(  0.2500000 )
                  (     1         -1          0      )       (  0.2500000 )
                  (     1          0          0      )       (  0.2500000 )

 cart.    s(41) = (  0.0000000 -1.0000000  0.0000000 )    f =( -0.2500000 )
                  (  0.0000000  0.0000000 -1.0000000 )       (  0.2500000 )
                  ( -1.0000000  0.0000000  0.0000000 )       (  0.2500000 )


      isym = 42     inv. 120 deg rotation - cart. axis [-1,1,1]  

 cryst.   s(42) = (     0         -1          0      )    f =(  0.2500000 )
                  (     0          0         -1      )       (  0.2500000 )
                  (    -1          0          0      )       (  0.2500000 )

 cart.    s(42) = (  0.0000000  1.0000000  0.0000000 )    f =( -0.2500000 )
                  (  0.0000000  0.0000000 -1.0000000 )       (  0.2500000 )
                  (  1.0000000  0.0000000  0.0000000 )       (  0.2500000 )


      isym = 43     inv. 120 deg rotation - cart. axis [1,1,-1]  

 cryst.   s(43) = (    -1          0          1      )    f =(  0.2500000 )
                  (     0          0          1      )       (  0.2500000 )
                  (     0         -1          1      )       (  0.2500000 )

 cart.    s(43) = (  0.0000000 -1.0000000  0.0000000 )    f =( -0.2500000 )
                  (  0.0000000  0.0000000  1.0000000 )       (  0.2500000 )
                  (  1.0000000  0.0000000  0.0000000 )       (  0.2500000 )


      isym = 44     inv. 120 deg rotation - cart. axis [1,-1,1]  

 cryst.   s(44) = (     0          1          0      )    f =(  0.2500000 )
                  (    -1          1          0      )       (  0.2500000 )
                  (     0          1         -1      )       (  0.2500000 )

 cart.    s(44) = (  0.0000000  1.0000000  0.0000000 )    f =( -0.2500000 )
                  (  0.0000000  0.0000000  1.0000000 )       (  0.2500000 )
                  ( -1.0000000  0.0000000  0.0000000 )       (  0.2500000 )


      isym = 45     inv. 120 deg rotation - cart. axis [1,1,1]   

 cryst.   s(45) = (     0          0          1      )    f =(  0.2500000 )
                  (     0         -1          1      )       (  0.2500000 )
                  (    -1          0          1      )       (  0.2500000 )

 cart.    s(45) = (  0.0000000  0.0000000 -1.0000000 )    f =( -0.2500000 )
                  ( -1.0000000  0.0000000  0.0000000 )       (  0.2500000 )
                  (  0.0000000 -1.0000000  0.0000000 )       (  0.2500000 )


      isym = 46     inv. 120 deg rotation - cart. axis [-1,1,-1] 

 cryst.   s(46) = (     1         -1          0      )    f =(  0.2500000 )
                  (     1          0          0      )       (  0.2500000 )
                  (     1          0         -1      )       (  0.2500000 )

 cart.    s(46) = (  0.0000000  0.0000000 -1.0000000 )    f =( -0.2500000 )
                  (  1.0000000  0.0000000  0.0000000 )       (  0.2500000 )
                  (  0.0000000  1.0000000  0.0000000 )       (  0.2500000 )


      isym = 47     inv. 120 deg rotation - cart. axis [1,-1,-1] 

 cryst.   s(47) = (     0          0         -1      )    f =(  0.2500000 )
                  (    -1          0          0      )       (  0.2500000 )
                  (     0         -1          0      )       (  0.2500000 )

 cart.    s(47) = (  0.0000000  0.0000000  1.0000000 )    f =( -0.2500000 )
                  (  1.0000000  0.0000000  0.0000000 )       (  0.2500000 )
                  (  0.0000000 -1.0000000  0.0000000 )       (  0.2500000 )


      isym = 48     inv. 120 deg rotation - cart. axis [-1,-1,1] 

 cryst.   s(48) = (    -1          1          0      )    f =(  0.2500000 )
                  (     0          1         -1      )       (  0.2500000 )
                  (     0          1          0      )       (  0.2500000 )

 cart.    s(48) = (  0.0000000  0.0000000  1.0000000 )    f =( -0.2500000 )
                  ( -1.0000000  0.0000000  0.0000000 )       (  0.2500000 )
                  (  0.0000000  1.0000000  0.0000000 )       (  0.2500000 )


     point group O_h (m-3m) 
     there are 10 classes
     the character table:

       E     8C3   3C2   6C4   6C2'  i     8S6   3s_h  6S4   6s_d 
A_1g   1.00  1.00  1.00  1.00  1.00  1.00  1.00  1.00  1.00  1.00
A_2g   1.00  1.00  1.00 -1.00 -1.00  1.00  1.00  1.00 -1.00 -1.00
E_g    2.00 -1.00  2.00  0.00  0.00  2.00 -1.00  2.00  0.00  0.00
T_1g   3.00  0.00 -1.00  1.00 -1.00  3.00  0.00 -1.00  1.00 -1.00
T_2g   3.00  0.00 -1.00 -1.00  1.00  3.00  0.00 -1.00 -1.00  1.00
A_1u   1.00  1.00  1.00  1.00  1.00 -1.00 -1.00 -1.00 -1.00 -1.00
A_2u   1.00  1.00  1.00 -1.00 -1.00 -1.00 -1.00 -1.00  1.00  1.00
E_u    2.00 -1.00  2.00  0.00  0.00 -2.00  1.00 -2.00  0.00  0.00
T_1u   3.00  0.00 -1.00  1.00 -1.00 -3.00  0.00  1.00 -1.00  1.00
T_2u   3.00  0.00 -1.00 -1.00  1.00 -3.00  0.00  1.00  1.00 -1.00

     the symmetry operations in each class and the name of the first element:

     E        1
          identity                                               
     8C3     17   19   20   18   24   21   22   23
          120 deg rotation - cart. axis [-1,-1,-1]               
     3C2      2    4    3
          180 deg rotation - cart. axis [0,0,1]                  
     6C4      7    8   15   16   12   11
           90 deg rotation - cart. axis [0,0,-1]                 
     6C2'     5    6   14   13   10    9
          180 deg rotation - cart. axis [1,1,0]                  
     i       25
          inversion                                              
     8S6     41   43   44   42   48   45   46   47
          inv. 120 deg rotation - cart. axis [-1,-1,-1]          
     3s_h    26   28   27
          inv. 180 deg rotation - cart. axis [0,0,1]             
     6S4     31   32   39   40   36   35
          inv.  90 deg rotation - cart. axis [0,0,-1]            
     6s_d    29   30   38   37   34   33
          inv. 180 deg rotation - cart. axis [1,1,0]             

   Cartesian axes

     site n.     atom                  positions (alat units)
         1           Si  tau(   1) = (   0.0000000   0.0000000   0.0000000  )
         2           Si  tau(   2) = (   0.2500000   0.2500000   0.2500000  )

   Crystallographic axes

     site n.     atom                  positions (cryst. coord.)
         1           Si  tau(   1) = (  0.0000000  0.0000000  0.0000000  )
         2           Si  tau(   2) = ( -0.2500000  0.7500000 -0.2500000  )

     number of k points=   344
                       cart. coord. in units 2pi/alat
        k(    1) = (  -0.0333333   0.0333333   0.0333333), wk =   0.0011852
        k(    2) = (  -0.1000000   0.1000000  -0.0333333), wk =   0.0035556
        k(    3) = (  -0.1666667   0.1666667  -0.1000000), wk =   0.0035556
        k(    4) = (  -0.2333333   0.2333333  -0.1666667), wk =   0.0035556
        k(    5) = (  -0.3000000   0.3000000  -0.2333333), wk =   0.0035556
        k(    6) = (  -0.3666667   0.3666667  -0.3000000), wk =   0.0035556
        k(    7) = (  -0.4333333   0.4333333  -0.3666667), wk =   0.0035556
        k(    8) = (   0.5000000  -0.5000000   0.5666667), wk =   0.0035556
        k(    9) = (   0.4333333  -0.4333333   0.5000000), wk =   0.0035556
        k(   10) = (   0.3666667  -0.3666667   0.4333333), wk =   0.0035556
        k(   11) = (   0.3000000  -0.3000000   0.3666667), wk =   0.0035556
        k(   12) = (   0.2333333  -0.2333333   0.3000000), wk =   0.0035556
        k(   13) = (   0.1666667  -0.1666667   0.2333333), wk =   0.0035556
        k(   14) = (   0.1000000  -0.1000000   0.1666667), wk =   0.0035556
        k(   15) = (   0.0333333  -0.0333333   0.1000000), wk =   0.0035556
        k(   16) = (  -0.0333333   0.1666667   0.0333333), wk =   0.0035556
        k(   17) = (  -0.1000000   0.2333333  -0.0333333), wk =   0.0071111
        k(   18) = (  -0.1666667   0.3000000  -0.1000000), wk =   0.0071111
        k(   19) = (  -0.2333333   0.3666667  -0.1666667), wk =   0.0071111
        k(   20) = (  -0.3000000   0.4333333  -0.2333333), wk =   0.0071111
        k(   21) = (  -0.3666667   0.5000000  -0.3000000), wk =   0.0071111
        k(   22) = (   0.5666667  -0.4333333   0.6333333), wk =   0.0071111
        k(   23) = (   0.5000000  -0.3666667   0.5666667), wk =   0.0071111
        k(   24) = (   0.4333333  -0.3000000   0.5000000), wk =   0.0071111
        k(   25) = (   0.3666667  -0.2333333   0.4333333), wk =   0.0071111
        k(   26) = (   0.3000000  -0.1666667   0.3666667), wk =   0.0071111
        k(   27) = (   0.2333333  -0.1000000   0.3000000), wk =   0.0071111
        k(   28) = (   0.1666667  -0.0333333   0.2333333), wk =   0.0071111
        k(   29) = (   0.1000000   0.0333333   0.1666667), wk =   0.0071111
        k(   30) = (  -0.0333333   0.3000000   0.0333333), wk =   0.0035556
        k(   31) = (  -0.1000000   0.3666667  -0.0333333), wk =   0.0071111
        k(   32) = (  -0.1666667   0.4333333  -0.1000000), wk =   0.0071111
        k(   33) = (  -0.2333333   0.5000000  -0.1666667), wk =   0.0071111
        k(   34) = (  -0.3000000   0.5666667  -0.2333333), wk =   0.0071111
        k(   35) = (   0.6333333  -0.3666667   0.7000000), wk =   0.0071111
        k(   36) = (   0.5666667  -0.3000000   0.6333333), wk =   0.0071111
        k(   37) = (   0.5000000  -0.2333333   0.5666667), wk =   0.0071111
        k(   38) = (   0.4333333  -0.1666667   0.5000000), wk =   0.0071111
        k(   39) = (   0.3666667  -0.1000000   0.4333333), wk =   0.0071111
        k(   40) = (   0.3000000  -0.0333333   0.3666667), wk =   0.0071111
        k(   41) = (   0.2333333   0.0333333   0.3000000), wk =   0.0071111
        k(   42) = (   0.1666667   0.1000000   0.2333333), wk =   0.0071111
        k(   43) = (  -0.0333333   0.4333333   0.0333333), wk =   0.0035556
        k(   44) = (  -0.1000000   0.5000000  -0.0333333), wk =   0.0071111
        k(   45) = (  -0.1666667   0.5666667  -0.1000000), wk =   0.0071111
        k(   46) = (  -0.2333333   0.6333333  -0.1666667), wk =   0.0071111
        k(   47) = (   0.7000000  -0.3000000   0.7666667), wk =   0.0071111
        k(   48) = (   0.6333333  -0.2333333   0.7000000), wk =   0.0071111
        k(   49) = (   0.5666667  -0.1666667   0.6333333), wk =   0.0071111
        k(   50) = (   0.5000000  -0.1000000   0.5666667), wk =   0.0071111
        k(   51) = (   0.4333333  -0.0333333   0.5000000), wk =   0.0071111
        k(   52) = (   0.3666667   0.0333333   0.4333333), wk =   0.0071111
        k(   53) = (   0.3000000   0.1000000   0.3666667), wk =   0.0071111
        k(   54) = (   0.2333333   0.1666667   0.3000000), wk =   0.0071111
        k(   55) = (  -0.0333333   0.5666667   0.0333333), wk =   0.0035556
        k(   56) = (  -0.1000000   0.6333333  -0.0333333), wk =   0.0071111
        k(   57) = (  -0.1666667   0.7000000  -0.1000000), wk =   0.0071111
        k(   58) = (   0.7666667  -0.2333333   0.8333333), wk =   0.0071111
        k(   59) = (   0.7000000  -0.1666667   0.7666667), wk =   0.0071111
        k(   60) = (   0.6333333  -0.1000000   0.7000000), wk =   0.0071111
        k(   61) = (   0.5666667  -0.0333333   0.6333333), wk =   0.0071111
        k(   62) = (   0.5000000   0.0333333   0.5666667), wk =   0.0071111
        k(   63) = (   0.4333333   0.1000000   0.5000000), wk =   0.0071111
        k(   64) = (   0.3666667   0.1666667   0.4333333), wk =   0.0071111
        k(   65) = (   0.3000000   0.2333333   0.3666667), wk =   0.0071111
        k(   66) = (  -0.0333333   0.7000000   0.0333333), wk =   0.0035556
        k(   67) = (  -0.1000000   0.7666667  -0.0333333), wk =   0.0071111
        k(   68) = (   0.8333333  -0.1666667   0.9000000), wk =   0.0071111
        k(   69) = (   0.7666667  -0.1000000   0.8333333), wk =   0.0071111
        k(   70) = (   0.7000000  -0.0333333   0.7666667), wk =   0.0071111
        k(   71) = (   0.6333333   0.0333333   0.7000000), wk =   0.0071111
        k(   72) = (   0.5666667   0.1000000   0.6333333), wk =   0.0071111
        k(   73) = (   0.5000000   0.1666667   0.5666667), wk =   0.0071111
        k(   74) = (   0.4333333   0.2333333   0.5000000), wk =   0.0071111
        k(   75) = (   0.3666667   0.3000000   0.4333333), wk =   0.0071111
        k(   76) = (  -0.0333333   0.8333333   0.0333333), wk =   0.0035556
        k(   77) = (   0.9000000  -0.1000000   0.9666667), wk =   0.0071111
        k(   78) = (   0.8333333  -0.0333333   0.9000000), wk =   0.0071111
        k(   79) = (   0.7666667   0.0333333   0.8333333), wk =   0.0071111
        k(   80) = (   0.7000000   0.1000000   0.7666667), wk =   0.0071111
        k(   81) = (   0.6333333   0.1666667   0.7000000), wk =   0.0071111
        k(   82) = (   0.5666667   0.2333333   0.6333333), wk =   0.0071111
        k(   83) = (   0.5000000   0.3000000   0.5666667), wk =   0.0071111
        k(   84) = (   0.4333333   0.3666667   0.5000000), wk =   0.0071111
        k(   85) = (  -0.0333333  -1.0333333   0.0333333), wk =   0.0035556
        k(   86) = (  -0.1000000  -0.9666667  -0.0333333), wk =   0.0071111
        k(   87) = (  -0.1666667  -0.9000000  -0.1000000), wk =   0.0071111
        k(   88) = (  -0.2333333  -0.8333333  -0.1666667), wk =   0.0071111
        k(   89) = (  -0.3000000  -0.7666667  -0.2333333), wk =   0.0071111
        k(   90) = (  -0.3666667  -0.7000000  -0.3000000), wk =   0.0071111
        k(   91) = (  -0.4333333  -0.6333333  -0.3666667), wk =   0.0071111
        k(   92) = (  -0.5000000  -0.5666667  -0.4333333), wk =   0.0035556
        k(   93) = (  -0.0333333  -0.9000000   0.0333333), wk =   0.0035556
        k(   94) = (  -0.1000000  -0.8333333  -0.0333333), wk =   0.0071111
        k(   95) = (  -0.1666667  -0.7666667  -0.1000000), wk =   0.0071111
        k(   96) = (  -0.2333333  -0.7000000  -0.1666667), wk =   0.0071111
        k(   97) = (  -0.3000000  -0.6333333  -0.2333333), wk =   0.0071111
        k(   98) = (  -0.3666667  -0.5666667  -0.3000000), wk =   0.0071111
        k(   99) = (  -0.0333333  -0.7666667   0.0333333), wk =   0.0035556
        k(  100) = (  -0.1000000  -0.7000000  -0.0333333), wk =   0.0071111
        k(  101) = (  -0.1666667  -0.6333333  -0.1000000), wk =   0.0071111
        k(  102) = (  -0.2333333  -0.5666667  -0.1666667), wk =   0.0071111
        k(  103) = (  -0.3000000  -0.5000000  -0.2333333), wk =   0.0071111
        k(  104) = (  -0.0333333  -0.6333333   0.0333333), wk =   0.0035556
        k(  105) = (  -0.1000000  -0.5666667  -0.0333333), wk =   0.0071111
        k(  106) = (  -0.1666667  -0.5000000  -0.1000000), wk =   0.0071111
        k(  107) = (  -0.2333333  -0.4333333  -0.1666667), wk =   0.0071111
        k(  108) = (  -0.0333333  -0.5000000   0.0333333), wk =   0.0035556
        k(  109) = (  -0.1000000  -0.4333333  -0.0333333), wk =   0.0071111
        k(  110) = (  -0.1666667  -0.3666667  -0.1000000), wk =   0.0071111
        k(  111) = (  -0.0333333  -0.3666667   0.0333333), wk =   0.0035556
        k(  112) = (  -0.1000000  -0.3000000  -0.0333333), wk =   0.0071111
        k(  113) = (  -0.0333333  -0.2333333   0.0333333), wk =   0.0035556
        k(  114) = (  -0.1000000   0.1000000   0.1000000), wk =   0.0011852
        k(  115) = (  -0.1666667   0.1666667   0.0333333), wk =   0.0035556
        k(  116) = (  -0.2333333   0.2333333  -0.0333333), wk =   0.0035556
        k(  117) = (  -0.3000000   0.3000000  -0.1000000), wk =   0.0035556
        k(  118) = (  -0.3666667   0.3666667  -0.1666667), wk =   0.0035556
        k(  119) = (  -0.4333333   0.4333333  -0.2333333), wk =   0.0035556
        k(  120) = (   0.5000000  -0.5000000   0.7000000), wk =   0.0035556
        k(  121) = (   0.4333333  -0.4333333   0.6333333), wk =   0.0035556
        k(  122) = (   0.3666667  -0.3666667   0.5666667), wk =   0.0035556
        k(  123) = (   0.3000000  -0.3000000   0.5000000), wk =   0.0035556
        k(  124) = (   0.2333333  -0.2333333   0.4333333), wk =   0.0035556
        k(  125) = (   0.1666667  -0.1666667   0.3666667), wk =   0.0035556
        k(  126) = (   0.1000000  -0.1000000   0.3000000), wk =   0.0035556
        k(  127) = (  -0.1000000   0.2333333   0.1000000), wk =   0.0035556
        k(  128) = (  -0.1666667   0.3000000   0.0333333), wk =   0.0071111
        k(  129) = (  -0.2333333   0.3666667  -0.0333333), wk =   0.0071111
        k(  130) = (  -0.3000000   0.4333333  -0.1000000), wk =   0.0071111
        k(  131) = (  -0.3666667   0.5000000  -0.1666667), wk =   0.0071111
        k(  132) = (   0.5666667  -0.4333333   0.7666667), wk =   0.0071111
        k(  133) = (   0.5000000  -0.3666667   0.7000000), wk =   0.0071111
        k(  134) = (   0.4333333  -0.3000000   0.6333333), wk =   0.0071111
        k(  135) = (   0.3666667  -0.2333333   0.5666667), wk =   0.0071111
        k(  136) = (   0.3000000  -0.1666667   0.5000000), wk =   0.0071111
        k(  137) = (   0.2333333  -0.1000000   0.4333333), wk =   0.0071111
        k(  138) = (   0.1666667  -0.0333333   0.3666667), wk =   0.0071111
        k(  139) = (  -0.1000000   0.3666667   0.1000000), wk =   0.0035556
        k(  140) = (  -0.1666667   0.4333333   0.0333333), wk =   0.0071111
        k(  141) = (  -0.2333333   0.5000000  -0.0333333), wk =   0.0071111
        k(  142) = (  -0.3000000   0.5666667  -0.1000000), wk =   0.0071111
        k(  143) = (   0.6333333  -0.3666667   0.8333333), wk =   0.0071111
        k(  144) = (   0.5666667  -0.3000000   0.7666667), wk =   0.0071111
        k(  145) = (   0.5000000  -0.2333333   0.7000000), wk =   0.0071111
        k(  146) = (   0.4333333  -0.1666667   0.6333333), wk =   0.0071111
        k(  147) = (   0.3666667  -0.1000000   0.5666667), wk =   0.0071111
        k(  148) = (   0.3000000  -0.0333333   0.5000000), wk =   0.0071111
        k(  149) = (   0.2333333   0.0333333   0.4333333), wk =   0.0071111
        k(  150) = (  -0.1000000   0.5000000   0.1000000), wk =   0.0035556
        k(  151) = (  -0.1666667   0.5666667   0.0333333), wk =   0.0071111
        k(  152) = (  -0.2333333   0.6333333  -0.0333333), wk =   0.0071111
        k(  153) = (   0.7000000  -0.3000000   0.9000000), wk =   0.0071111
        k(  154) = (   0.6333333  -0.2333333   0.8333333), wk =   0.0071111
        k(  155) = (   0.5666667  -0.1666667   0.7666667), wk =   0.0071111
        k(  156) = (   0.5000000  -0.1000000   0.7000000), wk =   0.0071111
        k(  157) = (   0.4333333  -0.0333333   0.6333333), wk =   0.0071111
        k(  158) = (   0.3666667   0.0333333   0.5666667), wk =   0.0071111
        k(  159) = (   0.3000000   0.1000000   0.5000000), wk =   0.0071111
        k(  160) = (  -0.1000000   0.6333333   0.1000000), wk =   0.0035556
        k(  161) = (  -0.1666667   0.7000000   0.0333333), wk =   0.0071111
        k(  162) = (   0.7666667  -0.2333333   0.9666667), wk =   0.0071111
        k(  163) = (   0.7000000  -0.1666667   0.9000000), wk =   0.0071111
        k(  164) = (   0.6333333  -0.1000000   0.8333333), wk =   0.0071111
        k(  165) = (   0.5666667  -0.0333333   0.7666667), wk =   0.0071111
        k(  166) = (   0.5000000   0.0333333   0.7000000), wk =   0.0071111
        k(  167) = (   0.4333333   0.1000000   0.6333333), wk =   0.0071111
        k(  168) = (   0.3666667   0.1666667   0.5666667), wk =   0.0071111
        k(  169) = (  -0.1000000   0.7666667   0.1000000), wk =   0.0035556
        k(  170) = (   0.8333333  -0.1666667   1.0333333), wk =   0.0071111
        k(  171) = (   0.7666667  -0.1000000   0.9666667), wk =   0.0071111
        k(  172) = (   0.7000000  -0.0333333   0.9000000), wk =   0.0071111
        k(  173) = (   0.6333333   0.0333333   0.8333333), wk =   0.0071111
        k(  174) = (   0.5666667   0.1000000   0.7666667), wk =   0.0071111
        k(  175) = (   0.5000000   0.1666667   0.7000000), wk =   0.0071111
        k(  176) = (   0.4333333   0.2333333   0.6333333), wk =   0.0071111
        k(  177) = (  -0.1000000  -1.1000000   0.1000000), wk =   0.0035556
        k(  178) = (  -0.1666667  -1.0333333   0.0333333), wk =   0.0071111
        k(  179) = (  -0.2333333  -0.9666667  -0.0333333), wk =   0.0071111
        k(  180) = (  -0.3000000  -0.9000000  -0.1000000), wk =   0.0071111
        k(  181) = (  -0.3666667  -0.8333333  -0.1666667), wk =   0.0071111
        k(  182) = (  -0.4333333  -0.7666667  -0.2333333), wk =   0.0071111
        k(  183) = (  -0.5000000  -0.7000000  -0.3000000), wk =   0.0035556
        k(  184) = (  -0.1000000  -0.9666667   0.1000000), wk =   0.0035556
        k(  185) = (  -0.1666667  -0.9000000   0.0333333), wk =   0.0071111
        k(  186) = (  -0.2333333  -0.8333333  -0.0333333), wk =   0.0071111
        k(  187) = (  -0.3000000  -0.7666667  -0.1000000), wk =   0.0071111
        k(  188) = (  -0.3666667  -0.7000000  -0.1666667), wk =   0.0071111
        k(  189) = (  -0.1000000  -0.8333333   0.1000000), wk =   0.0035556
        k(  190) = (  -0.1666667  -0.7666667   0.0333333), wk =   0.0071111
        k(  191) = (  -0.2333333  -0.7000000  -0.0333333), wk =   0.0071111
        k(  192) = (  -0.3000000  -0.6333333  -0.1000000), wk =   0.0071111
        k(  193) = (  -0.1000000  -0.7000000   0.1000000), wk =   0.0035556
        k(  194) = (  -0.1666667  -0.6333333   0.0333333), wk =   0.0071111
        k(  195) = (  -0.2333333  -0.5666667  -0.0333333), wk =   0.0071111
        k(  196) = (  -0.1000000  -0.5666667   0.1000000), wk =   0.0035556
        k(  197) = (  -0.1666667  -0.5000000   0.0333333), wk =   0.0071111
        k(  198) = (  -0.1000000  -0.4333333   0.1000000), wk =   0.0035556
        k(  199) = (  -0.1666667   0.1666667   0.1666667), wk =   0.0011852
        k(  200) = (  -0.2333333   0.2333333   0.1000000), wk =   0.0035556
        k(  201) = (  -0.3000000   0.3000000   0.0333333), wk =   0.0035556
        k(  202) = (  -0.3666667   0.3666667  -0.0333333), wk =   0.0035556
        k(  203) = (  -0.4333333   0.4333333  -0.1000000), wk =   0.0035556
        k(  204) = (   0.5000000  -0.5000000   0.8333333), wk =   0.0035556
        k(  205) = (   0.4333333  -0.4333333   0.7666667), wk =   0.0035556
        k(  206) = (   0.3666667  -0.3666667   0.7000000), wk =   0.0035556
        k(  207) = (   0.3000000  -0.3000000   0.6333333), wk =   0.0035556
        k(  208) = (   0.2333333  -0.2333333   0.5666667), wk =   0.0035556
        k(  209) = (   0.1666667  -0.1666667   0.5000000), wk =   0.0035556
        k(  210) = (  -0.1666667   0.3000000   0.1666667), wk =   0.0035556
        k(  211) = (  -0.2333333   0.3666667   0.1000000), wk =   0.0071111
        k(  212) = (  -0.3000000   0.4333333   0.0333333), wk =   0.0071111
        k(  213) = (  -0.3666667   0.5000000  -0.0333333), wk =   0.0071111
        k(  214) = (   0.5666667  -0.4333333   0.9000000), wk =   0.0071111
        k(  215) = (   0.5000000  -0.3666667   0.8333333), wk =   0.0071111
        k(  216) = (   0.4333333  -0.3000000   0.7666667), wk =   0.0071111
        k(  217) = (   0.3666667  -0.2333333   0.7000000), wk =   0.0071111
        k(  218) = (   0.3000000  -0.1666667   0.6333333), wk =   0.0071111
        k(  219) = (   0.2333333  -0.1000000   0.5666667), wk =   0.0071111
        k(  220) = (  -0.1666667   0.4333333   0.1666667), wk =   0.0035556
        k(  221) = (  -0.2333333   0.5000000   0.1000000), wk =   0.0071111
        k(  222) = (  -0.3000000   0.5666667   0.0333333), wk =   0.0071111
        k(  223) = (   0.6333333  -0.3666667   0.9666667), wk =   0.0071111
        k(  224) = (   0.5666667  -0.3000000   0.9000000), wk =   0.0071111
        k(  225) = (   0.5000000  -0.2333333   0.8333333), wk =   0.0071111
        k(  226) = (   0.4333333  -0.1666667   0.7666667), wk =   0.0071111
        k(  227) = (   0.3666667  -0.1000000   0.7000000), wk =   0.0071111
        k(  228) = (   0.3000000  -0.0333333   0.6333333), wk =   0.0071111
        k(  229) = (  -0.1666667   0.5666667   0.1666667), wk =   0.0035556
        k(  230) = (  -0.2333333   0.6333333   0.1000000), wk =   0.0071111
        k(  231) = (   0.7000000  -0.3000000   1.0333333), wk =   0.0071111
        k(  232) = (   0.6333333  -0.2333333   0.9666667), wk =   0.0071111
        k(  233) = (   0.5666667  -0.1666667   0.9000000), wk =   0.0071111
        k(  234) = (   0.5000000  -0.1000000   0.8333333), wk =   0.0071111
        k(  235) = (   0.4333333  -0.0333333   0.7666667), wk =   0.0071111
        k(  236) = (   0.3666667   0.0333333   0.7000000), wk =   0.0071111
        k(  237) = (  -0.1666667   0.7000000   0.1666667), wk =   0.0035556
        k(  238) = (   0.7666667  -0.2333333   1.1000000), wk =   0.0071111
        k(  239) = (   0.7000000  -0.1666667   1.0333333), wk =   0.0071111
        k(  240) = (   0.6333333  -0.1000000   0.9666667), wk =   0.0071111
        k(  241) = (   0.5666667  -0.0333333   0.9000000), wk =   0.0071111
        k(  242) = (   0.5000000   0.0333333   0.8333333), wk =   0.0071111
        k(  243) = (   0.4333333   0.1000000   0.7666667), wk =   0.0071111
        k(  244) = (  -0.1666667  -1.1666667   0.1666667), wk =   0.0035556
        k(  245) = (  -0.2333333  -1.1000000   0.1000000), wk =   0.0071111
        k(  246) = (  -0.3000000  -1.0333333   0.0333333), wk =   0.0071111
        k(  247) = (  -0.3666667  -0.9666667  -0.0333333), wk =   0.0071111
        k(  248) = (  -0.4333333  -0.9000000  -0.1000000), wk =   0.0071111
        k(  249) = (  -0.5000000  -0.8333333  -0.1666667), wk =   0.0035556
        k(  250) = (  -0.1666667  -1.0333333   0.1666667), wk =   0.0035556
        k(  251) = (  -0.2333333  -0.9666667   0.1000000), wk =   0.0071111
        k(  252) = (  -0.3000000  -0.9000000   0.0333333), wk =   0.0071111
        k(  253) = (  -0.3666667  -0.8333333  -0.0333333), wk =   0.0071111
        k(  254) = (  -0.1666667  -0.9000000   0.1666667), wk =   0.0035556
        k(  255) = (  -0.2333333  -0.8333333   0.1000000), wk =   0.0071111
        k(  256) = (  -0.3000000  -0.7666667   0.0333333), wk =   0.0071111
        k(  257) = (  -0.1666667  -0.7666667   0.1666667), wk =   0.0035556
        k(  258) = (  -0.2333333  -0.7000000   0.1000000), wk =   0.0071111
        k(  259) = (  -0.1666667  -0.6333333   0.1666667), wk =   0.0035556
        k(  260) = (  -0.2333333   0.2333333   0.2333333), wk =   0.0011852
        k(  261) = (  -0.3000000   0.3000000   0.1666667), wk =   0.0035556
        k(  262) = (  -0.3666667   0.3666667   0.1000000), wk =   0.0035556
        k(  263) = (  -0.4333333   0.4333333   0.0333333), wk =   0.0035556
        k(  264) = (   0.5000000  -0.5000000   0.9666667), wk =   0.0035556
        k(  265) = (   0.4333333  -0.4333333   0.9000000), wk =   0.0035556
        k(  266) = (   0.3666667  -0.3666667   0.8333333), wk =   0.0035556
        k(  267) = (   0.3000000  -0.3000000   0.7666667), wk =   0.0035556
        k(  268) = (   0.2333333  -0.2333333   0.7000000), wk =   0.0035556
        k(  269) = (  -0.2333333   0.3666667   0.2333333), wk =   0.0035556
        k(  270) = (  -0.3000000   0.4333333   0.1666667), wk =   0.0071111
        k(  271) = (  -0.3666667   0.5000000   0.1000000), wk =   0.0071111
        k(  272) = (   0.5666667  -0.4333333   1.0333333), wk =   0.0071111
        k(  273) = (   0.5000000  -0.3666667   0.9666667), wk =   0.0071111
        k(  274) = (   0.4333333  -0.3000000   0.9000000), wk =   0.0071111
        k(  275) = (   0.3666667  -0.2333333   0.8333333), wk =   0.0071111
        k(  276) = (   0.3000000  -0.1666667   0.7666667), wk =   0.0071111
        k(  277) = (  -0.2333333   0.5000000   0.2333333), wk =   0.0035556
        k(  278) = (  -0.3000000   0.5666667   0.1666667), wk =   0.0071111
        k(  279) = (   0.6333333  -0.3666667   1.1000000), wk =   0.0071111
        k(  280) = (   0.5666667  -0.3000000   1.0333333), wk =   0.0071111
        k(  281) = (   0.5000000  -0.2333333   0.9666667), wk =   0.0071111
        k(  282) = (   0.4333333  -0.1666667   0.9000000), wk =   0.0071111
        k(  283) = (   0.3666667  -0.1000000   0.8333333), wk =   0.0071111
        k(  284) = (  -0.2333333   0.6333333   0.2333333), wk =   0.0035556
        k(  285) = (   0.7000000  -0.3000000   1.1666667), wk =   0.0071111
        k(  286) = (   0.6333333  -0.2333333   1.1000000), wk =   0.0071111
        k(  287) = (   0.5666667  -0.1666667   1.0333333), wk =   0.0071111
        k(  288) = (   0.5000000  -0.1000000   0.9666667), wk =   0.0071111
        k(  289) = (   0.4333333  -0.0333333   0.9000000), wk =   0.0071111
        k(  290) = (  -0.2333333  -1.2333333   0.2333333), wk =   0.0035556
        k(  291) = (  -0.3000000  -1.1666667   0.1666667), wk =   0.0071111
        k(  292) = (  -0.3666667  -1.1000000   0.1000000), wk =   0.0071111
        k(  293) = (  -0.4333333  -1.0333333   0.0333333), wk =   0.0071111
        k(  294) = (  -0.5000000  -0.9666667  -0.0333333), wk =   0.0035556
        k(  295) = (  -0.2333333  -1.1000000   0.2333333), wk =   0.0035556
        k(  296) = (  -0.3000000  -1.0333333   0.1666667), wk =   0.0071111
        k(  297) = (  -0.3666667  -0.9666667   0.1000000), wk =   0.0071111
        k(  298) = (  -0.2333333  -0.9666667   0.2333333), wk =   0.0035556
        k(  299) = (  -0.3000000  -0.9000000   0.1666667), wk =   0.0071111
        k(  300) = (  -0.2333333  -0.8333333   0.2333333), wk =   0.0035556
        k(  301) = (  -0.3000000   0.3000000   0.3000000), wk =   0.0011852
        k(  302) = (  -0.3666667   0.3666667   0.2333333), wk =   0.0035556
        k(  303) = (  -0.4333333   0.4333333   0.1666667), wk =   0.0035556
        k(  304) = (   0.5000000  -0.5000000   1.1000000), wk =   0.0035556
        k(  305) = (   0.4333333  -0.4333333   1.0333333), wk =   0.0035556
        k(  306) = (   0.3666667  -0.3666667   0.9666667), wk =   0.0035556
        k(  307) = (   0.3000000  -0.3000000   0.9000000), wk =   0.0035556
        k(  308) = (  -0.3000000   0.4333333   0.3000000), wk =   0.0035556
        k(  309) = (  -0.3666667   0.5000000   0.2333333), wk =   0.0071111
        k(  310) = (   0.5666667  -0.4333333   1.1666667), wk =   0.0071111
        k(  311) = (   0.5000000  -0.3666667   1.1000000), wk =   0.0071111
        k(  312) = (   0.4333333  -0.3000000   1.0333333), wk =   0.0071111
        k(  313) = (   0.3666667  -0.2333333   0.9666667), wk =   0.0071111
        k(  314) = (  -0.3000000   0.5666667   0.3000000), wk =   0.0035556
        k(  315) = (   0.6333333  -0.3666667   1.2333333), wk =   0.0071111
        k(  316) = (   0.5666667  -0.3000000   1.1666667), wk =   0.0071111
        k(  317) = (   0.5000000  -0.2333333   1.1000000), wk =   0.0071111
        k(  318) = (   0.4333333  -0.1666667   1.0333333), wk =   0.0071111
        k(  319) = (  -0.3000000  -1.3000000   0.3000000), wk =   0.0035556
        k(  320) = (  -0.3666667  -1.2333333   0.2333333), wk =   0.0071111
        k(  321) = (  -0.4333333  -1.1666667   0.1666667), wk =   0.0071111
        k(  322) = (  -0.5000000  -1.1000000   0.1000000), wk =   0.0035556
        k(  323) = (  -0.3000000  -1.1666667   0.3000000), wk =   0.0035556
        k(  324) = (  -0.3666667  -1.1000000   0.2333333), wk =   0.0071111
        k(  325) = (  -0.3000000  -1.0333333   0.3000000), wk =   0.0035556
        k(  326) = (  -0.3666667   0.3666667   0.3666667), wk =   0.0011852
        k(  327) = (  -0.4333333   0.4333333   0.3000000), wk =   0.0035556
        k(  328) = (   0.5000000  -0.5000000   1.2333333), wk =   0.0035556
        k(  329) = (   0.4333333  -0.4333333   1.1666667), wk =   0.0035556
        k(  330) = (   0.3666667  -0.3666667   1.1000000), wk =   0.0035556
        k(  331) = (  -0.3666667   0.5000000   0.3666667), wk =   0.0035556
        k(  332) = (   0.5666667  -0.4333333   1.3000000), wk =   0.0071111
        k(  333) = (   0.5000000  -0.3666667   1.2333333), wk =   0.0071111
        k(  334) = (   0.4333333  -0.3000000   1.1666667), wk =   0.0071111
        k(  335) = (  -0.3666667  -1.3666667   0.3666667), wk =   0.0035556
        k(  336) = (  -0.4333333  -1.3000000   0.3000000), wk =   0.0071111
        k(  337) = (  -0.5000000  -1.2333333   0.2333333), wk =   0.0035556
        k(  338) = (  -0.3666667  -1.2333333   0.3666667), wk =   0.0035556
        k(  339) = (  -0.4333333   0.4333333   0.4333333), wk =   0.0011852
        k(  340) = (   0.5000000  -0.5000000   1.3666667), wk =   0.0035556
        k(  341) = (   0.4333333  -0.4333333   1.3000000), wk =   0.0035556
        k(  342) = (  -0.4333333  -1.4333333   0.4333333), wk =   0.0035556
        k(  343) = (  -0.5000000  -1.3666667   0.3666667), wk =   0.0035556
        k(  344) = (   0.5000000  -0.5000000  -0.5000000), wk =   0.0005926

                       cryst. coord.
        k(    1) = (   0.0333333   0.0333333   0.0333333), wk =   0.0011852
        k(    2) = (   0.0333333   0.0333333   0.1000000), wk =   0.0035556
        k(    3) = (   0.0333333   0.0333333   0.1666667), wk =   0.0035556
        k(    4) = (   0.0333333   0.0333333   0.2333333), wk =   0.0035556
        k(    5) = (   0.0333333   0.0333333   0.3000000), wk =   0.0035556
        k(    6) = (   0.0333333   0.0333333   0.3666667), wk =   0.0035556
        k(    7) = (   0.0333333   0.0333333   0.4333333), wk =   0.0035556
        k(    8) = (   0.0333333   0.0333333  -0.5000000), wk =   0.0035556
        k(    9) = (   0.0333333   0.0333333  -0.4333333), wk =   0.0035556
        k(   10) = (   0.0333333   0.0333333  -0.3666667), wk =   0.0035556
        k(   11) = (   0.0333333   0.0333333  -0.3000000), wk =   0.0035556
        k(   12) = (   0.0333333   0.0333333  -0.2333333), wk =   0.0035556
        k(   13) = (   0.0333333   0.0333333  -0.1666667), wk =   0.0035556
        k(   14) = (   0.0333333   0.0333333  -0.1000000), wk =   0.0035556
        k(   15) = (   0.0333333   0.0333333  -0.0333333), wk =   0.0035556
        k(   16) = (   0.0333333   0.1000000   0.1000000), wk =   0.0035556
        k(   17) = (   0.0333333   0.1000000   0.1666667), wk =   0.0071111
        k(   18) = (   0.0333333   0.1000000   0.2333333), wk =   0.0071111
        k(   19) = (   0.0333333   0.1000000   0.3000000), wk =   0.0071111
        k(   20) = (   0.0333333   0.1000000   0.3666667), wk =   0.0071111
        k(   21) = (   0.0333333   0.1000000   0.4333333), wk =   0.0071111
        k(   22) = (   0.0333333   0.1000000  -0.5000000), wk =   0.0071111
        k(   23) = (   0.0333333   0.1000000  -0.4333333), wk =   0.0071111
        k(   24) = (   0.0333333   0.1000000  -0.3666667), wk =   0.0071111
        k(   25) = (   0.0333333   0.1000000  -0.3000000), wk =   0.0071111
        k(   26) = (   0.0333333   0.1000000  -0.2333333), wk =   0.0071111
        k(   27) = (   0.0333333   0.1000000  -0.1666667), wk =   0.0071111
        k(   28) = (   0.0333333   0.1000000  -0.1000000), wk =   0.0071111
        k(   29) = (   0.0333333   0.1000000  -0.0333333), wk =   0.0071111
        k(   30) = (   0.0333333   0.1666667   0.1666667), wk =   0.0035556
        k(   31) = (   0.0333333   0.1666667   0.2333333), wk =   0.0071111
        k(   32) = (   0.0333333   0.1666667   0.3000000), wk =   0.0071111
        k(   33) = (   0.0333333   0.1666667   0.3666667), wk =   0.0071111
        k(   34) = (   0.0333333   0.1666667   0.4333333), wk =   0.0071111
        k(   35) = (   0.0333333   0.1666667  -0.5000000), wk =   0.0071111
        k(   36) = (   0.0333333   0.1666667  -0.4333333), wk =   0.0071111
        k(   37) = (   0.0333333   0.1666667  -0.3666667), wk =   0.0071111
        k(   38) = (   0.0333333   0.1666667  -0.3000000), wk =   0.0071111
        k(   39) = (   0.0333333   0.1666667  -0.2333333), wk =   0.0071111
        k(   40) = (   0.0333333   0.1666667  -0.1666667), wk =   0.0071111
        k(   41) = (   0.0333333   0.1666667  -0.1000000), wk =   0.0071111
        k(   42) = (   0.0333333   0.1666667  -0.0333333), wk =   0.0071111
        k(   43) = (   0.0333333   0.2333333   0.2333333), wk =   0.0035556
        k(   44) = (   0.0333333   0.2333333   0.3000000), wk =   0.0071111
        k(   45) = (   0.0333333   0.2333333   0.3666667), wk =   0.0071111
        k(   46) = (   0.0333333   0.2333333   0.4333333), wk =   0.0071111
        k(   47) = (   0.0333333   0.2333333  -0.5000000), wk =   0.0071111
        k(   48) = (   0.0333333   0.2333333  -0.4333333), wk =   0.0071111
        k(   49) = (   0.0333333   0.2333333  -0.3666667), wk =   0.0071111
        k(   50) = (   0.0333333   0.2333333  -0.3000000), wk =   0.0071111
        k(   51) = (   0.0333333   0.2333333  -0.2333333), wk =   0.0071111
        k(   52) = (   0.0333333   0.2333333  -0.1666667), wk =   0.0071111
        k(   53) = (   0.0333333   0.2333333  -0.1000000), wk =   0.0071111
        k(   54) = (   0.0333333   0.2333333  -0.0333333), wk =   0.0071111
        k(   55) = (   0.0333333   0.3000000   0.3000000), wk =   0.0035556
        k(   56) = (   0.0333333   0.3000000   0.3666667), wk =   0.0071111
        k(   57) = (   0.0333333   0.3000000   0.4333333), wk =   0.0071111
        k(   58) = (   0.0333333   0.3000000  -0.5000000), wk =   0.0071111
        k(   59) = (   0.0333333   0.3000000  -0.4333333), wk =   0.0071111
        k(   60) = (   0.0333333   0.3000000  -0.3666667), wk =   0.0071111
        k(   61) = (   0.0333333   0.3000000  -0.3000000), wk =   0.0071111
        k(   62) = (   0.0333333   0.3000000  -0.2333333), wk =   0.0071111
        k(   63) = (   0.0333333   0.3000000  -0.1666667), wk =   0.0071111
        k(   64) = (   0.0333333   0.3000000  -0.1000000), wk =   0.0071111
        k(   65) = (   0.0333333   0.3000000  -0.0333333), wk =   0.0071111
        k(   66) = (   0.0333333   0.3666667   0.3666667), wk =   0.0035556
        k(   67) = (   0.0333333   0.3666667   0.4333333), wk =   0.0071111
        k(   68) = (   0.0333333   0.3666667  -0.5000000), wk =   0.0071111
        k(   69) = (   0.0333333   0.3666667  -0.4333333), wk =   0.0071111
        k(   70) = (   0.0333333   0.3666667  -0.3666667), wk =   0.0071111
        k(   71) = (   0.0333333   0.3666667  -0.3000000), wk =   0.0071111
        k(   72) = (   0.0333333   0.3666667  -0.2333333), wk =   0.0071111
        k(   73) = (   0.0333333   0.3666667  -0.1666667), wk =   0.0071111
        k(   74) = (   0.0333333   0.3666667  -0.1000000), wk =   0.0071111
        k(   75) = (   0.0333333   0.3666667  -0.0333333), wk =   0.0071111
        k(   76) = (   0.0333333   0.4333333   0.4333333), wk =   0.0035556
        k(   77) = (   0.0333333   0.4333333  -0.5000000), wk =   0.0071111
        k(   78) = (   0.0333333   0.4333333  -0.4333333), wk =   0.0071111
        k(   79) = (   0.0333333   0.4333333  -0.3666667), wk =   0.0071111
        k(   80) = (   0.0333333   0.4333333  -0.3000000), wk =   0.0071111
        k(   81) = (   0.0333333   0.4333333  -0.2333333), wk =   0.0071111
        k(   82) = (   0.0333333   0.4333333  -0.1666667), wk =   0.0071111
        k(   83) = (   0.0333333   0.4333333  -0.1000000), wk =   0.0071111
        k(   84) = (   0.0333333   0.4333333  -0.0333333), wk =   0.0071111
        k(   85) = (   0.0333333  -0.5000000  -0.5000000), wk =   0.0035556
        k(   86) = (   0.0333333  -0.5000000  -0.4333333), wk =   0.0071111
        k(   87) = (   0.0333333  -0.5000000  -0.3666667), wk =   0.0071111
        k(   88) = (   0.0333333  -0.5000000  -0.3000000), wk =   0.0071111
        k(   89) = (   0.0333333  -0.5000000  -0.2333333), wk =   0.0071111
        k(   90) = (   0.0333333  -0.5000000  -0.1666667), wk =   0.0071111
        k(   91) = (   0.0333333  -0.5000000  -0.1000000), wk =   0.0071111
        k(   92) = (   0.0333333  -0.5000000  -0.0333333), wk =   0.0035556
        k(   93) = (   0.0333333  -0.4333333  -0.4333333), wk =   0.0035556
        k(   94) = (   0.0333333  -0.4333333  -0.3666667), wk =   0.0071111
        k(   95) = (   0.0333333  -0.4333333  -0.3000000), wk =   0.0071111
        k(   96) = (   0.0333333  -0.4333333  -0.2333333), wk =   0.0071111
        k(   97) = (   0.0333333  -0.4333333  -0.1666667), wk =   0.0071111
        k(   98) = (   0.0333333  -0.4333333  -0.1000000), wk =   0.0071111
        k(   99) = (   0.0333333  -0.3666667  -0.3666667), wk =   0.0035556
        k(  100) = (   0.0333333  -0.3666667  -0.3000000), wk =   0.0071111
        k(  101) = (   0.0333333  -0.3666667  -0.2333333), wk =   0.0071111
        k(  102) = (   0.0333333  -0.3666667  -0.1666667), wk =   0.0071111
        k(  103) = (   0.0333333  -0.3666667  -0.1000000), wk =   0.0071111
        k(  104) = (   0.0333333  -0.3000000  -0.3000000), wk =   0.0035556
        k(  105) = (   0.0333333  -0.3000000  -0.2333333), wk =   0.0071111
        k(  106) = (   0.0333333  -0.3000000  -0.1666667), wk =   0.0071111
        k(  107) = (   0.0333333  -0.3000000  -0.1000000), wk =   0.0071111
        k(  108) = (   0.0333333  -0.2333333  -0.2333333), wk =   0.0035556
        k(  109) = (   0.0333333  -0.2333333  -0.1666667), wk =   0.0071111
        k(  110) = (   0.0333333  -0.2333333  -0.1000000), wk =   0.0071111
        k(  111) = (   0.0333333  -0.1666667  -0.1666667), wk =   0.0035556
        k(  112) = (   0.0333333  -0.1666667  -0.1000000), wk =   0.0071111
        k(  113) = (   0.0333333  -0.1000000  -0.1000000), wk =   0.0035556
        k(  114) = (   0.1000000   0.1000000   0.1000000), wk =   0.0011852
        k(  115) = (   0.1000000   0.1000000   0.1666667), wk =   0.0035556
        k(  116) = (   0.1000000   0.1000000   0.2333333), wk =   0.0035556
        k(  117) = (   0.1000000   0.1000000   0.3000000), wk =   0.0035556
        k(  118) = (   0.1000000   0.1000000   0.3666667), wk =   0.0035556
        k(  119) = (   0.1000000   0.1000000   0.4333333), wk =   0.0035556
        k(  120) = (   0.1000000   0.1000000  -0.5000000), wk =   0.0035556
        k(  121) = (   0.1000000   0.1000000  -0.4333333), wk =   0.0035556
        k(  122) = (   0.1000000   0.1000000  -0.3666667), wk =   0.0035556
        k(  123) = (   0.1000000   0.1000000  -0.3000000), wk =   0.0035556
        k(  124) = (   0.1000000   0.1000000  -0.2333333), wk =   0.0035556
        k(  125) = (   0.1000000   0.1000000  -0.1666667), wk =   0.0035556
        k(  126) = (   0.1000000   0.1000000  -0.1000000), wk =   0.0035556
        k(  127) = (   0.1000000   0.1666667   0.1666667), wk =   0.0035556
        k(  128) = (   0.1000000   0.1666667   0.2333333), wk =   0.0071111
        k(  129) = (   0.1000000   0.1666667   0.3000000), wk =   0.0071111
        k(  130) = (   0.1000000   0.1666667   0.3666667), wk =   0.0071111
        k(  131) = (   0.1000000   0.1666667   0.4333333), wk =   0.0071111
        k(  132) = (   0.1000000   0.1666667  -0.5000000), wk =   0.0071111
        k(  133) = (   0.1000000   0.1666667  -0.4333333), wk =   0.0071111
        k(  134) = (   0.1000000   0.1666667  -0.3666667), wk =   0.0071111
        k(  135) = (   0.1000000   0.1666667  -0.3000000), wk =   0.0071111
        k(  136) = (   0.1000000   0.1666667  -0.2333333), wk =   0.0071111
        k(  137) = (   0.1000000   0.1666667  -0.1666667), wk =   0.0071111
        k(  138) = (   0.1000000   0.1666667  -0.1000000), wk =   0.0071111
        k(  139) = (   0.1000000   0.2333333   0.2333333), wk =   0.0035556
        k(  140) = (   0.1000000   0.2333333   0.3000000), wk =   0.0071111
        k(  141) = (   0.1000000   0.2333333   0.3666667), wk =   0.0071111
        k(  142) = (   0.1000000   0.2333333   0.4333333), wk =   0.0071111
        k(  143) = (   0.1000000   0.2333333  -0.5000000), wk =   0.0071111
        k(  144) = (   0.1000000   0.2333333  -0.4333333), wk =   0.0071111
        k(  145) = (   0.1000000   0.2333333  -0.3666667), wk =   0.0071111
        k(  146) = (   0.1000000   0.2333333  -0.3000000), wk =   0.0071111
        k(  147) = (   0.1000000   0.2333333  -0.2333333), wk =   0.0071111
        k(  148) = (   0.1000000   0.2333333  -0.1666667), wk =   0.0071111
        k(  149) = (   0.1000000   0.2333333  -0.1000000), wk =   0.0071111
        k(  150) = (   0.1000000   0.3000000   0.3000000), wk =   0.0035556
        k(  151) = (   0.1000000   0.3000000   0.3666667), wk =   0.0071111
        k(  152) = (   0.1000000   0.3000000   0.4333333), wk =   0.0071111
        k(  153) = (   0.1000000   0.3000000  -0.5000000), wk =   0.0071111
        k(  154) = (   0.1000000   0.3000000  -0.4333333), wk =   0.0071111
        k(  155) = (   0.1000000   0.3000000  -0.3666667), wk =   0.0071111
        k(  156) = (   0.1000000   0.3000000  -0.3000000), wk =   0.0071111
        k(  157) = (   0.1000000   0.3000000  -0.2333333), wk =   0.0071111
        k(  158) = (   0.1000000   0.3000000  -0.1666667), wk =   0.0071111
        k(  159) = (   0.1000000   0.3000000  -0.1000000), wk =   0.0071111
        k(  160) = (   0.1000000   0.3666667   0.3666667), wk =   0.0035556
        k(  161) = (   0.1000000   0.3666667   0.4333333), wk =   0.0071111
        k(  162) = (   0.1000000   0.3666667  -0.5000000), wk =   0.0071111
        k(  163) = (   0.1000000   0.3666667  -0.4333333), wk =   0.0071111
        k(  164) = (   0.1000000   0.3666667  -0.3666667), wk =   0.0071111
        k(  165) = (   0.1000000   0.3666667  -0.3000000), wk =   0.0071111
        k(  166) = (   0.1000000   0.3666667  -0.2333333), wk =   0.0071111
        k(  167) = (   0.1000000   0.3666667  -0.1666667), wk =   0.0071111
        k(  168) = (   0.1000000   0.3666667  -0.1000000), wk =   0.0071111
        k(  169) = (   0.1000000   0.4333333   0.4333333), wk =   0.0035556
        k(  170) = (   0.1000000   0.4333333  -0.5000000), wk =   0.0071111
        k(  171) = (   0.1000000   0.4333333  -0.4333333), wk =   0.0071111
        k(  172) = (   0.1000000   0.4333333  -0.3666667), wk =   0.0071111
        k(  173) = (   0.1000000   0.4333333  -0.3000000), wk =   0.0071111
        k(  174) = (   0.1000000   0.4333333  -0.2333333), wk =   0.0071111
        k(  175) = (   0.1000000   0.4333333  -0.1666667), wk =   0.0071111
        k(  176) = (   0.1000000   0.4333333  -0.1000000), wk =   0.0071111
        k(  177) = (   0.1000000  -0.5000000  -0.5000000), wk =   0.0035556
        k(  178) = (   0.1000000  -0.5000000  -0.4333333), wk =   0.0071111
        k(  179) = (   0.1000000  -0.5000000  -0.3666667), wk =   0.0071111
        k(  180) = (   0.1000000  -0.5000000  -0.3000000), wk =   0.0071111
        k(  181) = (   0.1000000  -0.5000000  -0.2333333), wk =   0.0071111
        k(  182) = (   0.1000000  -0.5000000  -0.1666667), wk =   0.0071111
        k(  183) = (   0.1000000  -0.5000000  -0.1000000), wk =   0.0035556
        k(  184) = (   0.1000000  -0.4333333  -0.4333333), wk =   0.0035556
        k(  185) = (   0.1000000  -0.4333333  -0.3666667), wk =   0.0071111
        k(  186) = (   0.1000000  -0.4333333  -0.3000000), wk =   0.0071111
        k(  187) = (   0.1000000  -0.4333333  -0.2333333), wk =   0.0071111
        k(  188) = (   0.1000000  -0.4333333  -0.1666667), wk =   0.0071111
        k(  189) = (   0.1000000  -0.3666667  -0.3666667), wk =   0.0035556
        k(  190) = (   0.1000000  -0.3666667  -0.3000000), wk =   0.0071111
        k(  191) = (   0.1000000  -0.3666667  -0.2333333), wk =   0.0071111
        k(  192) = (   0.1000000  -0.3666667  -0.1666667), wk =   0.0071111
        k(  193) = (   0.1000000  -0.3000000  -0.3000000), wk =   0.0035556
        k(  194) = (   0.1000000  -0.3000000  -0.2333333), wk =   0.0071111
        k(  195) = (   0.1000000  -0.3000000  -0.1666667), wk =   0.0071111
        k(  196) = (   0.1000000  -0.2333333  -0.2333333), wk =   0.0035556
        k(  197) = (   0.1000000  -0.2333333  -0.1666667), wk =   0.0071111
        k(  198) = (   0.1000000  -0.1666667  -0.1666667), wk =   0.0035556
        k(  199) = (   0.1666667   0.1666667   0.1666667), wk =   0.0011852
        k(  200) = (   0.1666667   0.1666667   0.2333333), wk =   0.0035556
        k(  201) = (   0.1666667   0.1666667   0.3000000), wk =   0.0035556
        k(  202) = (   0.1666667   0.1666667   0.3666667), wk =   0.0035556
        k(  203) = (   0.1666667   0.1666667   0.4333333), wk =   0.0035556
        k(  204) = (   0.1666667   0.1666667  -0.5000000), wk =   0.0035556
        k(  205) = (   0.1666667   0.1666667  -0.4333333), wk =   0.0035556
        k(  206) = (   0.1666667   0.1666667  -0.3666667), wk =   0.0035556
        k(  207) = (   0.1666667   0.1666667  -0.3000000), wk =   0.0035556
        k(  208) = (   0.1666667   0.1666667  -0.2333333), wk =   0.0035556
        k(  209) = (   0.1666667   0.1666667  -0.1666667), wk =   0.0035556
        k(  210) = (   0.1666667   0.2333333   0.2333333), wk =   0.0035556
        k(  211) = (   0.1666667   0.2333333   0.3000000), wk =   0.0071111
        k(  212) = (   0.1666667   0.2333333   0.3666667), wk =   0.0071111
        k(  213) = (   0.1666667   0.2333333   0.4333333), wk =   0.0071111
        k(  214) = (   0.1666667   0.2333333  -0.5000000), wk =   0.0071111
        k(  215) = (   0.1666667   0.2333333  -0.4333333), wk =   0.0071111
        k(  216) = (   0.1666667   0.2333333  -0.3666667), wk =   0.0071111
        k(  217) = (   0.1666667   0.2333333  -0.3000000), wk =   0.0071111
        k(  218) = (   0.1666667   0.2333333  -0.2333333), wk =   0.0071111
        k(  219) = (   0.1666667   0.2333333  -0.1666667), wk =   0.0071111
        k(  220) = (   0.1666667   0.3000000   0.3000000), wk =   0.0035556
        k(  221) = (   0.1666667   0.3000000   0.3666667), wk =   0.0071111
        k(  222) = (   0.1666667   0.3000000   0.4333333), wk =   0.0071111
        k(  223) = (   0.1666667   0.3000000  -0.5000000), wk =   0.0071111
        k(  224) = (   0.1666667   0.3000000  -0.4333333), wk =   0.0071111
        k(  225) = (   0.1666667   0.3000000  -0.3666667), wk =   0.0071111
        k(  226) = (   0.1666667   0.3000000  -0.3000000), wk =   0.0071111
        k(  227) = (   0.1666667   0.3000000  -0.2333333), wk =   0.0071111
        k(  228) = (   0.1666667   0.3000000  -0.1666667), wk =   0.0071111
        k(  229) = (   0.1666667   0.3666667   0.3666667), wk =   0.0035556
        k(  230) = (   0.1666667   0.3666667   0.4333333), wk =   0.0071111
        k(  231) = (   0.1666667   0.3666667  -0.5000000), wk =   0.0071111
        k(  232) = (   0.1666667   0.3666667  -0.4333333), wk =   0.0071111
        k(  233) = (   0.1666667   0.3666667  -0.3666667), wk =   0.0071111
        k(  234) = (   0.1666667   0.3666667  -0.3000000), wk =   0.0071111
        k(  235) = (   0.1666667   0.3666667  -0.2333333), wk =   0.0071111
        k(  236) = (   0.1666667   0.3666667  -0.1666667), wk =   0.0071111
        k(  237) = (   0.1666667   0.4333333   0.4333333), wk =   0.0035556
        k(  238) = (   0.1666667   0.4333333  -0.5000000), wk =   0.0071111
        k(  239) = (   0.1666667   0.4333333  -0.4333333), wk =   0.0071111
        k(  240) = (   0.1666667   0.4333333  -0.3666667), wk =   0.0071111
        k(  241) = (   0.1666667   0.4333333  -0.3000000), wk =   0.0071111
        k(  242) = (   0.1666667   0.4333333  -0.2333333), wk =   0.0071111
        k(  243) = (   0.1666667   0.4333333  -0.1666667), wk =   0.0071111
        k(  244) = (   0.1666667  -0.5000000  -0.5000000), wk =   0.0035556
        k(  245) = (   0.1666667  -0.5000000  -0.4333333), wk =   0.0071111
        k(  246) = (   0.1666667  -0.5000000  -0.3666667), wk =   0.0071111
        k(  247) = (   0.1666667  -0.5000000  -0.3000000), wk =   0.0071111
        k(  248) = (   0.1666667  -0.5000000  -0.2333333), wk =   0.0071111
        k(  249) = (   0.1666667  -0.5000000  -0.1666667), wk =   0.0035556
        k(  250) = (   0.1666667  -0.4333333  -0.4333333), wk =   0.0035556
        k(  251) = (   0.1666667  -0.4333333  -0.3666667), wk =   0.0071111
        k(  252) = (   0.1666667  -0.4333333  -0.3000000), wk =   0.0071111
        k(  253) = (   0.1666667  -0.4333333  -0.2333333), wk =   0.0071111
        k(  254) = (   0.1666667  -0.3666667  -0.3666667), wk =   0.0035556
        k(  255) = (   0.1666667  -0.3666667  -0.3000000), wk =   0.0071111
        k(  256) = (   0.1666667  -0.3666667  -0.2333333), wk =   0.0071111
        k(  257) = (   0.1666667  -0.3000000  -0.3000000), wk =   0.0035556
        k(  258) = (   0.1666667  -0.3000000  -0.2333333), wk =   0.0071111
        k(  259) = (   0.1666667  -0.2333333  -0.2333333), wk =   0.0035556
        k(  260) = (   0.2333333   0.2333333   0.2333333), wk =   0.0011852
        k(  261) = (   0.2333333   0.2333333   0.3000000), wk =   0.0035556
        k(  262) = (   0.2333333   0.2333333   0.3666667), wk =   0.0035556
        k(  263) = (   0.2333333   0.2333333   0.4333333), wk =   0.0035556
        k(  264) = (   0.2333333   0.2333333  -0.5000000), wk =   0.0035556
        k(  265) = (   0.2333333   0.2333333  -0.4333333), wk =   0.0035556
        k(  266) = (   0.2333333   0.2333333  -0.3666667), wk =   0.0035556
        k(  267) = (   0.2333333   0.2333333  -0.3000000), wk =   0.0035556
        k(  268) = (   0.2333333   0.2333333  -0.2333333), wk =   0.0035556
        k(  269) = (   0.2333333   0.3000000   0.3000000), wk =   0.0035556
        k(  270) = (   0.2333333   0.3000000   0.3666667), wk =   0.0071111
        k(  271) = (   0.2333333   0.3000000   0.4333333), wk =   0.0071111
        k(  272) = (   0.2333333   0.3000000  -0.5000000), wk =   0.0071111
        k(  273) = (   0.2333333   0.3000000  -0.4333333), wk =   0.0071111
        k(  274) = (   0.2333333   0.3000000  -0.3666667), wk =   0.0071111
        k(  275) = (   0.2333333   0.3000000  -0.3000000), wk =   0.0071111
        k(  276) = (   0.2333333   0.3000000  -0.2333333), wk =   0.0071111
        k(  277) = (   0.2333333   0.3666667   0.3666667), wk =   0.0035556
        k(  278) = (   0.2333333   0.3666667   0.4333333), wk =   0.0071111
        k(  279) = (   0.2333333   0.3666667  -0.5000000), wk =   0.0071111
        k(  280) = (   0.2333333   0.3666667  -0.4333333), wk =   0.0071111
        k(  281) = (   0.2333333   0.3666667  -0.3666667), wk =   0.0071111
        k(  282) = (   0.2333333   0.3666667  -0.3000000), wk =   0.0071111
        k(  283) = (   0.2333333   0.3666667  -0.2333333), wk =   0.0071111
        k(  284) = (   0.2333333   0.4333333   0.4333333), wk =   0.0035556
        k(  285) = (   0.2333333   0.4333333  -0.5000000), wk =   0.0071111
        k(  286) = (   0.2333333   0.4333333  -0.4333333), wk =   0.0071111
        k(  287) = (   0.2333333   0.4333333  -0.3666667), wk =   0.0071111
        k(  288) = (   0.2333333   0.4333333  -0.3000000), wk =   0.0071111
        k(  289) = (   0.2333333   0.4333333  -0.2333333), wk =   0.0071111
        k(  290) = (   0.2333333  -0.5000000  -0.5000000), wk =   0.0035556
        k(  291) = (   0.2333333  -0.5000000  -0.4333333), wk =   0.0071111
        k(  292) = (   0.2333333  -0.5000000  -0.3666667), wk =   0.0071111
        k(  293) = (   0.2333333  -0.5000000  -0.3000000), wk =   0.0071111
        k(  294) = (   0.2333333  -0.5000000  -0.2333333), wk =   0.0035556
        k(  295) = (   0.2333333  -0.4333333  -0.4333333), wk =   0.0035556
        k(  296) = (   0.2333333  -0.4333333  -0.3666667), wk =   0.0071111
        k(  297) = (   0.2333333  -0.4333333  -0.3000000), wk =   0.0071111
        k(  298) = (   0.2333333  -0.3666667  -0.3666667), wk =   0.0035556
        k(  299) = (   0.2333333  -0.3666667  -0.3000000), wk =   0.0071111
        k(  300) = (   0.2333333  -0.3000000  -0.3000000), wk =   0.0035556
        k(  301) = (   0.3000000   0.3000000   0.3000000), wk =   0.0011852
        k(  302) = (   0.3000000   0.3000000   0.3666667), wk =   0.0035556
        k(  303) = (   0.3000000   0.3000000   0.4333333), wk =   0.0035556
        k(  304) = (   0.3000000   0.3000000  -0.5000000), wk =   0.0035556
        k(  305) = (   0.3000000   0.3000000  -0.4333333), wk =   0.0035556
        k(  306) = (   0.3000000   0.3000000  -0.3666667), wk =   0.0035556
        k(  307) = (   0.3000000   0.3000000  -0.3000000), wk =   0.0035556
        k(  308) = (   0.3000000   0.3666667   0.3666667), wk =   0.0035556
        k(  309) = (   0.3000000   0.3666667   0.4333333), wk =   0.0071111
        k(  310) = (   0.3000000   0.3666667  -0.5000000), wk =   0.0071111
        k(  311) = (   0.3000000   0.3666667  -0.4333333), wk =   0.0071111
        k(  312) = (   0.3000000   0.3666667  -0.3666667), wk =   0.0071111
        k(  313) = (   0.3000000   0.3666667  -0.3000000), wk =   0.0071111
        k(  314) = (   0.3000000   0.4333333   0.4333333), wk =   0.0035556
        k(  315) = (   0.3000000   0.4333333  -0.5000000), wk =   0.0071111
        k(  316) = (   0.3000000   0.4333333  -0.4333333), wk =   0.0071111
        k(  317) = (   0.3000000   0.4333333  -0.3666667), wk =   0.0071111
        k(  318) = (   0.3000000   0.4333333  -0.3000000), wk =   0.0071111
        k(  319) = (   0.3000000  -0.5000000  -0.5000000), wk =   0.0035556
        k(  320) = (   0.3000000  -0.5000000  -0.4333333), wk =   0.0071111
        k(  321) = (   0.3000000  -0.5000000  -0.3666667), wk =   0.0071111
        k(  322) = (   0.3000000  -0.5000000  -0.3000000), wk =   0.0035556
        k(  323) = (   0.3000000  -0.4333333  -0.4333333), wk =   0.0035556
        k(  324) = (   0.3000000  -0.4333333  -0.3666667), wk =   0.0071111
        k(  325) = (   0.3000000  -0.3666667  -0.3666667), wk =   0.0035556
        k(  326) = (   0.3666667   0.3666667   0.3666667), wk =   0.0011852
        k(  327) = (   0.3666667   0.3666667   0.4333333), wk =   0.0035556
        k(  328) = (   0.3666667   0.3666667  -0.5000000), wk =   0.0035556
        k(  329) = (   0.3666667   0.3666667  -0.4333333), wk =   0.0035556
        k(  330) = (   0.3666667   0.3666667  -0.3666667), wk =   0.0035556
        k(  331) = (   0.3666667   0.4333333   0.4333333), wk =   0.0035556
        k(  332) = (   0.3666667   0.4333333  -0.5000000), wk =   0.0071111
        k(  333) = (   0.3666667   0.4333333  -0.4333333), wk =   0.0071111
        k(  334) = (   0.3666667   0.4333333  -0.3666667), wk =   0.0071111
        k(  335) = (   0.3666667  -0.5000000  -0.5000000), wk =   0.0035556
        k(  336) = (   0.3666667  -0.5000000  -0.4333333), wk =   0.0071111
        k(  337) = (   0.3666667  -0.5000000  -0.3666667), wk =   0.0035556
        k(  338) = (   0.3666667  -0.4333333  -0.4333333), wk =   0.0035556
        k(  339) = (   0.4333333   0.4333333   0.4333333), wk =   0.0011852
        k(  340) = (   0.4333333   0.4333333  -0.5000000), wk =   0.0035556
        k(  341) = (   0.4333333   0.4333333  -0.4333333), wk =   0.0035556
        k(  342) = (   0.4333333  -0.5000000  -0.5000000), wk =   0.0035556
        k(  343) = (   0.4333333  -0.5000000  -0.4333333), wk =   0.0035556
[...]

     occupation numbers 
     1.0000   1.0000   1.0000   1.0000   0.0000

          k =-0.2333-0.9667 0.1000 (   936 PWs)   bands (ev):

    -1.6093  -1.0310   2.5510   3.4849   7.7256

     occupation numbers 
     1.0000   1.0000   1.0000   1.0000   0.0000

          k =-0.3000-0.9000 0.0333 (   933 PWs)   bands (ev):

    -1.9561  -0.6110   2.6519   3.0906   8.6468

     occupation numbers 
     1.0000   1.0000   1.0000   1.0000   0.0000

          k =-0.3667-0.8333-0.0333 (   927 PWs)   bands (ev):

    -2.2723  -0.2563   2.4672   3.2322   9.3475

     occupation numbers 
     1.0000   1.0000   1.0000   1.0000   0.0000

          k =-0.1667-0.9000 0.1667 (   937 PWs)   bands (ev):

    -2.0569  -0.5926   2.5889   3.7620   7.3970

     occupation numbers 
     1.0000   1.0000   1.0000   1.0000   0.0000

          k =-0.2333-0.8333 0.1000 (   932 PWs)   bands (ev):

    -2.4597  -0.1365   2.7363   3.6236   7.8395

     occupation numbers 
     1.0000   1.0000   1.0000   1.0000   0.0000

          k =-0.3000-0.7667 0.0333 (   925 PWs)   bands (ev):

    -2.7854   0.2630   2.7662   3.5502   8.7605

     occupation numbers 
     1.0000   1.0000   1.0000   1.0000   0.0000

          k =-0.1667-0.7667 0.1667 (   929 PWs)   bands (ev):

    -2.9031   0.3272   2.9435   3.9317   7.6061

     occupation numbers 
     1.0000   1.0000   1.0000   1.0000   0.0000

          k =-0.2333-0.7000 0.1000 (   927 PWs)   bands (ev):

    -3.2615   0.7538   3.1466   3.9644   8.0943

     occupation numbers 
     1.0000   1.0000   1.0000   1.0000   0.0000

          k =-0.1667-0.6333 0.1667 (   922 PWs)   bands (ev):

    -3.6563   1.1912   3.5776   4.2314   7.9578

     occupation numbers 
     1.0000   1.0000   1.0000   1.0000   0.0000

          k =-0.2333 0.2333 0.2333 (   926 PWs)   bands (ev):

    -4.8958   2.7954   5.7100   5.7100   8.6230

     occupation numbers 
     1.0000   1.0000   1.0000   1.0000   0.0000

          k =-0.3000 0.3000 0.1667 (   931 PWs)   bands (ev):

    -4.7070   2.3990   5.0056   5.8102   8.8872

     occupation numbers 
     1.0000   1.0000   1.0000   1.0000   0.0000

          k =-0.3667 0.3667 0.1000 (   926 PWs)   bands (ev):

    -4.4079   2.0189   4.0133   5.6864   9.3230

     occupation numbers 
     1.0000   1.0000   1.0000   1.0000   0.0000

          k =-0.4333 0.4333 0.0333 (   923 PWs)   bands (ev):

    -4.0072   1.5697   3.1443   5.4082   9.2435

     occupation numbers 
     1.0000   1.0000   1.0000   1.0000   0.0000

          k = 0.5000-0.5000 0.9667 (   923 PWs)   bands (ev):

    -3.5249   0.9204   2.6510   5.0778   8.9109

     occupation numbers 
     1.0000   1.0000   1.0000   1.0000   0.0000

          k = 0.4333-0.4333 0.9000 (   927 PWs)   bands (ev):

    -3.0132   0.1811   2.5104   4.7647   8.5691

     occupation numbers 
     1.0000   1.0000   1.0000   1.0000   0.0000

          k = 0.3667-0.3667 0.8333 (   930 PWs)   bands (ev):

    -2.6338  -0.3367   2.5827   4.5071   8.2937

     occupation numbers 
     1.0000   1.0000   1.0000   1.0000   0.0000

          k = 0.3000-0.3000 0.7667 (   932 PWs)   bands (ev):

    -2.6984  -0.2592   2.8024   4.3259   8.1115

     occupation numbers 
     1.0000   1.0000   1.0000   1.0000   0.0000

          k = 0.2333-0.2333 0.7000 (   923 PWs)   bands (ev):

    -3.1402   0.3566   3.1417   4.2322   8.0187

     occupation numbers 
     1.0000   1.0000   1.0000   1.0000   0.0000

          k =-0.2333 0.3667 0.2333 (   932 PWs)   bands (ev):

    -4.5593   2.0083   5.2381   5.3937   8.7884

     occupation numbers 
     1.0000   1.0000   1.0000   1.0000   0.0000

          k =-0.3000 0.4333 0.1667 (   928 PWs)   bands (ev):

    -4.3005   1.6536   4.4037   5.3665   9.0710

     occupation numbers 
     1.0000   1.0000   1.0000   1.0000   0.0000

          k =-0.3667 0.5000 0.1000 (   927 PWs)   bands (ev):

    -3.9376   1.3158   3.4410   5.1668   9.5065

     occupation numbers 
     1.0000   1.0000   1.0000   1.0000   0.0000

          k = 0.5667-0.4333 1.0333 (   923 PWs)   bands (ev):

    -3.4850   0.9046   2.6788   4.8451   9.2614

     occupation numbers 
     1.0000   1.0000   1.0000   1.0000   0.0000

          k = 0.5000-0.3667 0.9667 (   926 PWs)   bands (ev):

    -2.9766   0.3338   2.2926   4.5120   8.8911

     occupation numbers 
     1.0000   1.0000   1.0000   1.0000   0.0000

          k = 0.4333-0.3000 0.9000 (   929 PWs)   bands (ev):

    -2.5153  -0.2342   2.2407   4.2294   8.5698

     occupation numbers 
     1.0000   1.0000   1.0000   1.0000   0.0000

          k = 0.3667-0.2333 0.8333 (   932 PWs)   bands (ev):

    -2.3919  -0.3914   2.4046   4.0307   8.3352

     occupation numbers 
     1.0000   1.0000   1.0000   1.0000   0.0000

          k = 0.3000-0.1667 0.7667 (   930 PWs)   bands (ev):

    -2.7479   0.0473   2.7204   3.9369   8.1921

     occupation numbers 
     1.0000   1.0000   1.0000   1.0000   0.0000

          k =-0.2333 0.5000 0.2333 (   923 PWs)   bands (ev):

    -4.0829   1.3011   4.5392   4.7764   8.6721

     occupation numbers 
     1.0000   1.0000   1.0000   1.0000   0.0000

          k =-0.3000 0.5667 0.1667 (   926 PWs)   bands (ev):

    -3.7606   0.9836   3.7514   4.6747   8.7591

     occupation numbers 
     1.0000   1.0000   1.0000   1.0000   0.0000

          k = 0.6333-0.3667 1.1000 (   925 PWs)   bands (ev):

    -3.3443   0.6667   2.9538   4.3838   9.3537

     occupation numbers 
     1.0000   1.0000   1.0000   1.0000   0.0000

          k = 0.5667-0.3000 1.0333 (   924 PWs)   bands (ev):

    -2.8563   0.2715   2.3804   4.0197   9.7421

     occupation numbers 
     1.0000   1.0000   1.0000   1.0000   0.0000

          k = 0.5000-0.2333 0.9667 (   927 PWs)   bands (ev):

    -2.3568  -0.2157   2.1379   3.7006   9.3990

     occupation numbers 
     1.0000   1.0000   1.0000   1.0000   0.0000

          k = 0.4333-0.1667 0.9000 (   925 PWs)   bands (ev):

    -2.0582  -0.5352   2.1816   3.4879   9.1284

     occupation numbers 
     1.0000   1.0000   1.0000   1.0000   0.0000

          k = 0.3667-0.1000 0.8333 (   925 PWs)   bands (ev):

    -2.2878  -0.2939   2.4179   3.4241   8.9410

     occupation numbers 
     1.0000   1.0000   1.0000   1.0000   0.0000

          k =-0.2333 0.6333 0.2333 (   917 PWs)   bands (ev):

    -3.4808   0.6634   3.5834   4.3881   8.2261

     occupation numbers 
     1.0000   1.0000   1.0000   1.0000   0.0000

          k = 0.7000-0.3000 1.1667 (   925 PWs)   bands (ev):

    -3.1067   0.3597   3.0477   4.1246   8.3554

     occupation numbers 
     1.0000   1.0000   1.0000   1.0000   0.0000

          k = 0.6333-0.2333 1.1000 (   926 PWs)   bands (ev):

    -2.6540   0.0322   2.5669   3.6780   9.0491

     occupation numbers 
     1.0000   1.0000   1.0000   1.0000   0.0000

          k = 0.5667-0.1667 1.0333 (   926 PWs)   bands (ev):

    -2.1554  -0.3641   2.2830   3.2397  10.0313

     occupation numbers 
     1.0000   1.0000   1.0000   1.0000   0.0000

          k = 0.5000-0.1000 0.9667 (   926 PWs)   bands (ev):

    -1.7220  -0.7570   2.2270   2.9528  10.1700

     occupation numbers 
     1.0000   1.0000   1.0000   1.0000   0.0000

          k = 0.4333-0.0333 0.9000 (   924 PWs)   bands (ev):

    -1.7952  -0.6928   2.3164   2.9320   9.9920

     occupation numbers 
     1.0000   1.0000   1.0000   1.0000   0.0000

          k =-0.2333-1.2333 0.2333 (   926 PWs)   bands (ev):

    -2.7804   0.0472   2.7558   4.1051   7.8434

     occupation numbers 
     1.0000   1.0000   1.0000   1.0000   0.0000

          k =-0.3000-1.1667 0.1667 (   931 PWs)   bands (ev):

    -2.3795  -0.2728   2.4486   3.8016   8.0655

     occupation numbers 
     1.0000   1.0000   1.0000   1.0000   0.0000

          k =-0.3667-1.1000 0.1000 (   927 PWs)   bands (ev):

    -1.9264  -0.6224   2.3089   3.2542   8.8675

     occupation numbers 
     1.0000   1.0000   1.0000   1.0000   0.0000

          k =-0.4333-1.0333 0.0333 (   929 PWs)   bands (ev):

    -1.4548  -1.0149   2.3873   2.7198   9.9705

     occupation numbers 
     1.0000   1.0000   1.0000   1.0000   0.0000

          k =-0.5000-0.9667-0.0333 (   932 PWs)   bands (ev):

    -1.4442  -1.0098   2.3541   2.6829  10.5003

     occupation numbers 
     1.0000   1.0000   1.0000   1.0000   0.0000

          k =-0.2333-1.1000 0.2333 (   935 PWs)   bands (ev):

    -2.0556  -0.5855   2.2331   3.9437   7.6147

     occupation numbers 
     1.0000   1.0000   1.0000   1.0000   0.0000

          k =-0.3000-1.0333 0.1667 (   932 PWs)   bands (ev):

    -1.7423  -0.8514   2.1562   3.6705   7.9358

     occupation numbers 
     1.0000   1.0000   1.0000   1.0000   0.0000

          k =-0.3667-0.9667 0.1000 (   927 PWs)   bands (ev):

    -1.6261  -0.9045   2.2506   3.1699   8.8304

     occupation numbers 
     1.0000   1.0000   1.0000   1.0000   0.0000

          k =-0.2333-0.9667 0.2333 (   933 PWs)   bands (ev):

    -1.7819  -0.8375   2.1240   3.9110   7.5679

     occupation numbers 
     1.0000   1.0000   1.0000   1.0000   0.0000

          k =-0.3000-0.9000 0.1667 (   931 PWs)   bands (ev):

    -2.0219  -0.5923   2.2558   3.7138   7.9793

     occupation numbers 
     1.0000   1.0000   1.0000   1.0000   0.0000

          k =-0.2333-0.8333 0.2333 (   936 PWs)   bands (ev):

    -2.4115  -0.2699   2.4472   4.0086   7.7073

     occupation numbers 
     1.0000   1.0000   1.0000   1.0000   0.0000

          k =-0.3000 0.3000 0.3000 (   926 PWs)   bands (ev):

    -4.4547   1.6127   5.4958   5.4958   8.3973

     occupation numbers 
     1.0000   1.0000   1.0000   1.0000   0.0000

          k =-0.3667 0.3667 0.2333 (   924 PWs)   bands (ev):

    -4.2392   1.2658   4.8388   5.5584   8.6874

     occupation numbers 
     1.0000   1.0000   1.0000   1.0000   0.0000

          k =-0.4333 0.4333 0.1667 (   927 PWs)   bands (ev):

    -3.9185   0.9752   3.8589   5.3942   9.0921

     occupation numbers 
     1.0000   1.0000   1.0000   1.0000   0.0000

          k = 0.5000-0.5000 1.1000 (   924 PWs)   bands (ev):

    -3.5035   0.7035   2.9253   5.0884   8.9210

     occupation numbers 
     1.0000   1.0000   1.0000   1.0000   0.0000

          k = 0.4333-0.4333 1.0333 (   925 PWs)   bands (ev):

    -3.0169   0.3494   2.2625   4.7446   8.5379

     occupation numbers 
     1.0000   1.0000   1.0000   1.0000   0.0000

          k = 0.3667-0.3667 0.9667 (   932 PWs)   bands (ev):

    -2.5190  -0.1387   2.0144   4.4291   8.1727

     occupation numbers 
     1.0000   1.0000   1.0000   1.0000   0.0000

          k = 0.3000-0.3000 0.9000 (   933 PWs)   bands (ev):

    -2.2111  -0.4859   2.1144   4.1776   7.8897

     occupation numbers 
     1.0000   1.0000   1.0000   1.0000   0.0000

          k =-0.3000 0.4333 0.3000 (   923 PWs)   bands (ev):

    -4.0686   0.9154   5.1132   5.1464   8.6220

     occupation numbers 
     1.0000   1.0000   1.0000   1.0000   0.0000

          k =-0.3667 0.5000 0.2333 (   926 PWs)   bands (ev):

    -3.7935   0.6306   4.2708   5.1320   8.9761

     occupation numbers 
     1.0000   1.0000   1.0000   1.0000   0.0000

          k = 0.5667-0.4333 1.1667 (   922 PWs)   bands (ev):

    -3.4229   0.4021   3.3285   4.8878   9.2667

     occupation numbers 
     1.0000   1.0000   1.0000   1.0000   0.0000

          k = 0.5000-0.3667 1.1000 (   929 PWs)   bands (ev):

    -2.9731   0.1746   2.5237   4.5391   8.9216

     occupation numbers 
     1.0000   1.0000   1.0000   1.0000   0.0000

          k = 0.4333-0.3000 1.0333 (   928 PWs)   bands (ev):

    -2.4784  -0.1542   2.0458   4.1944   8.5307

     occupation numbers 
     1.0000   1.0000   1.0000   1.0000   0.0000

          k = 0.3667-0.2333 0.9667 (   926 PWs)   bands (ev):

    -2.0452  -0.5531   1.9860   3.9098   8.2071

     occupation numbers 
     1.0000   1.0000   1.0000   1.0000   0.0000

          k =-0.3000 0.5667 0.3000 (   921 PWs)   bands (ev):

    -3.5674   0.3431   4.2518   4.7437   8.6436

     occupation numbers 
     1.0000   1.0000   1.0000   1.0000   0.0000

          k = 0.6333-0.3667 1.2333 (   925 PWs)   bands (ev):

    -3.2487   0.1232   3.5606   4.5519   8.7930

     occupation numbers 
     1.0000   1.0000   1.0000   1.0000   0.0000

          k = 0.5667-0.3000 1.1667 (   925 PWs)   bands (ev):

    -2.8509  -0.0563   2.8272   4.1824   9.4612

     occupation numbers 
     1.0000   1.0000   1.0000   1.0000   0.0000

          k = 0.5000-0.2333 1.1000 (   929 PWs)   bands (ev):

    -2.3953  -0.2732   2.2795   3.7668   9.4339

     occupation numbers 
     1.0000   1.0000   1.0000   1.0000   0.0000

          k = 0.4333-0.1667 1.0333 (   925 PWs)   bands (ev):

    -1.9231  -0.6134   2.0801   3.4126   9.0902

     occupation numbers 
     1.0000   1.0000   1.0000   1.0000   0.0000

          k =-0.3000-1.3000 0.3000 (   923 PWs)   bands (ev):

    -2.9906  -0.0929   3.2592   4.4415   8.2778

     occupation numbers 
     1.0000   1.0000   1.0000   1.0000   0.0000

          k =-0.3667-1.2333 0.2333 (   927 PWs)   bands (ev):

    -2.6629  -0.2524   2.7591   4.1551   8.4593

     occupation numbers 
     1.0000   1.0000   1.0000   1.0000   0.0000

          k =-0.4333-1.1667 0.1667 (   927 PWs)   bands (ev):

    -2.2848  -0.4058   2.3613   3.6419   9.2043

     occupation numbers 
     1.0000   1.0000   1.0000   1.0000   0.0000

          k =-0.5000-1.1000 0.1000 (   926 PWs)   bands (ev):

    -1.8766  -0.6420   2.2147   3.1216  10.0963

     occupation numbers 
     1.0000   1.0000   1.0000   1.0000   0.0000

          k =-0.3000-1.1667 0.3000 (   933 PWs)   bands (ev):

    -2.4285  -0.3908   2.4094   4.2374   7.9800

     occupation numbers 
     1.0000   1.0000   1.0000   1.0000   0.0000

          k =-0.3667-1.1000 0.2333 (   932 PWs)   bands (ev):

    -2.1725  -0.4949   2.1341   3.9498   8.2502

     occupation numbers 
     1.0000   1.0000   1.0000   1.0000   0.0000

          k =-0.3000-1.0333 0.3000 (   934 PWs)   bands (ev):

    -2.0860  -0.5377   1.9539   4.1474   7.8439

     occupation numbers 
     1.0000   1.0000   1.0000   1.0000   0.0000

          k =-0.3667 0.3667 0.3667 (   926 PWs)   bands (ev):

    -3.9472   0.5621   5.3377   5.3377   8.2248

     occupation numbers 
     1.0000   1.0000   1.0000   1.0000   0.0000

          k =-0.4333 0.4333 0.3000 (   930 PWs)   bands (ev):

    -3.7238   0.2832   4.7529   5.3454   8.5411

     occupation numbers 
     1.0000   1.0000   1.0000   1.0000   0.0000

          k = 0.5000-0.5000 1.2333 (   925 PWs)   bands (ev):

    -3.4071   0.0855   3.8203   5.1337   8.8866

     occupation numbers 
     1.0000   1.0000   1.0000   1.0000   0.0000

          k = 0.4333-0.4333 1.1667 (   925 PWs)   bands (ev):

    -3.0105  -0.0565   2.9089   4.8038   8.6260

     occupation numbers 
     1.0000   1.0000   1.0000   1.0000   0.0000

          k = 0.3667-0.3667 1.1000 (   929 PWs)   bands (ev):

    -2.5555  -0.2260   2.2242   4.4554   8.2139

     occupation numbers 
     1.0000   1.0000   1.0000   1.0000   0.0000

          k =-0.3667 0.5000 0.3667 (   924 PWs)   bands (ev):

    -3.5577   0.0073   4.9492   5.0644   8.5020

     occupation numbers 
     1.0000   1.0000   1.0000   1.0000   0.0000

          k = 0.5667-0.4333 1.3000 (   927 PWs)   bands (ev):

    -3.3046  -0.1755   4.2046   4.9710   8.9020

     occupation numbers 
     1.0000   1.0000   1.0000   1.0000   0.0000

          k = 0.5000-0.3667 1.2333 (   930 PWs)   bands (ev):

    -2.9779  -0.2722   3.3303   4.6732   9.0395

     occupation numbers 
     1.0000   1.0000   1.0000   1.0000   0.0000

          k = 0.4333-0.3000 1.1667 (   933 PWs)   bands (ev):

    -2.5944  -0.3355   2.5731   4.2998   8.6461

     occupation numbers 
     1.0000   1.0000   1.0000   1.0000   0.0000

          k =-0.3667-1.3667 0.3667 (   925 PWs)   bands (ev):

    -3.1270  -0.3390   4.0274   4.7964   8.6526

     occupation numbers 
     1.0000   1.0000   1.0000   1.0000   0.0000

          k =-0.4333-1.3000 0.3000 (   931 PWs)   bands (ev):

    -2.8892  -0.3972   3.4155   4.5538   8.8775

     occupation numbers 
     1.0000   1.0000   1.0000   1.0000   0.0000

          k =-0.5000-1.2333 0.2333 (   938 PWs)   bands (ev):

    -2.6056  -0.3835   2.7919   4.1096   9.5810

     occupation numbers 
     1.0000   1.0000   1.0000   1.0000   0.0000

          k =-0.3667-1.2333 0.3667 (   930 PWs)   bands (ev):

    -2.7586  -0.4091   3.0288   4.5829   8.4062

     occupation numbers 
     1.0000   1.0000   1.0000   1.0000   0.0000

          k =-0.4333 0.4333 0.4333 (   932 PWs)   bands (ev):

    -3.4595  -0.2558   5.2417   5.2417   8.1181

     occupation numbers 
     1.0000   1.0000   1.0000   1.0000   0.0000

          k = 0.5000-0.5000 1.3667 (   926 PWs)   bands (ev):

    -3.2844  -0.4113   4.7458   5.1862   8.4592

     occupation numbers 
     1.0000   1.0000   1.0000   1.0000   0.0000

          k = 0.4333-0.4333 1.3000 (   934 PWs)   bands (ev):

    -3.0463  -0.4522   3.8800   4.9294   8.7340

     occupation numbers 
     1.0000   1.0000   1.0000   1.0000   0.0000

          k =-0.4333-1.4333 0.4333 (   928 PWs)   bands (ev):

    -3.2013  -0.5313   4.8132   5.0903   8.4460

     occupation numbers 
     1.0000   1.0000   1.0000   1.0000   0.0000

          k =-0.5000-1.3667 0.3667 (   924 PWs)   bands (ev):

    -3.0675  -0.5194   4.1857   4.9131   8.8759

     occupation numbers 
     1.0000   1.0000   1.0000   1.0000   0.0000

          k = 0.5000-0.5000-0.5000 (   912 PWs)   bands (ev):

    -3.2245  -0.6016   5.2097   5.2097   8.0821

     occupation numbers 
     1.0000   1.0000   1.0000   1.0000   0.0000

     highest occupied, lowest unoccupied level (ev):     6.3946    7.0424

     Writing output data file Si_bulk.save/

     init_run     :      0.08s CPU      0.10s WALL (       1 calls)
     electrons    :     16.06s CPU     16.84s WALL (       1 calls)

     Called by init_run:
     wfcinit      :      0.00s CPU      0.00s WALL (       1 calls)
     wfcinit:atom :      0.05s CPU      0.05s WALL (     344 calls)
     wfcinit:wfcr :      1.42s CPU      1.55s WALL (     344 calls)
     potinit      :      0.02s CPU      0.02s WALL (       1 calls)
     hinit0       :      0.05s CPU      0.06s WALL (       1 calls)

     Called by electrons:
     c_bands      :     16.06s CPU     16.84s WALL (       1 calls)
     v_of_rho     :      0.02s CPU      0.02s WALL (       1 calls)
     v_h          :      0.00s CPU      0.00s WALL (       1 calls)
     v_xc         :      0.02s CPU      0.02s WALL (       1 calls)

     Called by c_bands:
     init_us_2    :      0.05s CPU      0.05s WALL (     344 calls)
     cegterg      :     14.40s CPU     15.01s WALL (     505 calls)

     Called by sum_band:

     Called by *egterg:
     h_psi        :     13.38s CPU     14.08s WALL (    8396 calls)
     g_psi        :      0.12s CPU      0.12s WALL (    7547 calls)
     cdiaghg      :      0.55s CPU      0.56s WALL (    7891 calls)
     cegterg:over :      0.61s CPU      0.63s WALL (    7547 calls)
     cegterg:upda :      0.68s CPU      0.67s WALL (    7547 calls)
     cegterg:last :      0.29s CPU      0.28s WALL (    1646 calls)

     Called by h_psi:
     h_psi:pot    :     13.34s CPU     14.03s WALL (    8396 calls)
     h_psi:calbec :      0.24s CPU      0.26s WALL (    8396 calls)
     vloc_psi     :     12.68s CPU     13.18s WALL (    8396 calls)
     add_vuspsi   :      0.39s CPU      0.57s WALL (    8396 calls)

     General routines
     calbec       :      0.23s CPU      0.25s WALL (    8396 calls)
     fft          :      0.00s CPU      0.00s WALL (      10 calls)
     fftw         :     10.90s CPU     11.28s WALL (   53934 calls)
     davcio       :      0.00s CPU      0.05s WALL (     688 calls)


     PWSCF        :     16.28s CPU     17.45s WALL


   This run was terminated on:  11:23:33   3May2021            

=------------------------------------------------------------------------------=
   JOB DONE.
=------------------------------------------------------------------------------=
