
     Program PWSCF v.6.4.1 starts on 30Apr2021 at 11: 4:34 

     This program is part of the open-source Quantum ESPRESSO suite
     for quantum simulation of materials; please cite
         "P. Giannozzi et al., J. Phys.:Condens. Matter 21 395502 (2009);
         "P. Giannozzi et al., J. Phys.:Condens. Matter 29 465901 (2017);
          URL http://www.quantum-espresso.org", 
     in publications or presentations arising from this work. More details at
     http://www.quantum-espresso.org/quote

     Serial version
     Waiting for input...
     Reading input from standard input

     Current dimensions of program PWSCF are:
     Max number of different atomic species (ntypx) = 10
     Max number of k-points (npk) =  40000
     Max angular momentum in pseudopotentials (lmaxx) =  3
               file H.pz-vbc.UPF: wavefunction(s)  1S renormalized

     gamma-point specific algorithms are used

     G-vector sticks info
     --------------------
     sticks:   dense  smooth     PW     G-vecs:    dense   smooth      PW
     Sum        8585    8585   2145               599161   599161   74773


     Title: 
     Ge5H12                                                                     


     bravais-lattice index     =            1
     lattice parameter (alat)  =      30.0000  a.u.
     unit-cell volume          =   27000.0000 (a.u.)^3
     number of atoms/cell      =           17
     number of atomic types    =            2
     number of electrons       =        32.00
     number of Kohn-Sham states=           60
     kinetic-energy cutoff     =      30.0000  Ry
     charge density cutoff     =     120.0000  Ry
     convergence threshold     =      1.0E-08
     mixing beta               =       0.7000
     number of iterations used =            8  plain     mixing
     Exchange-correlation      =  SLA  PZ   NOGX NOGC ( 1  1  0  0 0 0)
     nstep                     =           50


     celldm(1)=  30.000000  celldm(2)=   0.000000  celldm(3)=   0.000000
     celldm(4)=   0.000000  celldm(5)=   0.000000  celldm(6)=   0.000000

     crystal axes: (cart. coord. in units of alat)
               a(1) = (   1.000000   0.000000   0.000000 )  
               a(2) = (   0.000000   1.000000   0.000000 )  
               a(3) = (   0.000000   0.000000   1.000000 )  

     reciprocal axes: (cart. coord. in units 2 pi/alat)
               b(1) = (  1.000000  0.000000  0.000000 )  
               b(2) = (  0.000000  1.000000  0.000000 )  
               b(3) = (  0.000000  0.000000  1.000000 )  


     PseudoPot. # 1 for Ge read from file:
     ../../pseudo/Ge.pz-bhs.UPF
     MD5 check sum: b7b4c8185357afdf0fa67a96e0e23842
     Pseudo is Norm-conserving, Zval =  4.0
     Generated by new atomic code, or converted to UPF format
     Using radial grid of  291 points,  2 beta functions with: 
                l(1) =   0
                l(2) =   1

     PseudoPot. # 2 for H  read from file:
     ../../pseudo/H.pz-vbc.UPF
     MD5 check sum: 90becb985b714f09656c73597998d266
     Pseudo is Norm-conserving, Zval =  1.0
     Generated by new atomic code, or converted to UPF format
     Using radial grid of  131 points,  0 beta functions with: 

     atomic species   valence    mass     pseudopotential
        Ge             4.00    72.61000     Ge( 1.00)
        H              1.00     1.00794     H ( 1.00)

     No symmetry found


                                    s                        frac. trans.

      isym =  1     identity                                     

 cryst.   s( 1) = (     1          0          0      )
                  (     0          1          0      )
                  (     0          0          1      )

 cart.    s( 1) = (  1.0000000  0.0000000  0.0000000 )
                  (  0.0000000  1.0000000  0.0000000 )
                  (  0.0000000  0.0000000  1.0000000 )


     point group C_1 (1)    
     there are  1 classes
     the character table:

       E    
A      1.00

     the symmetry operations in each class and the name of the first element:

     E        1
          identity                                               

   Cartesian axes

     site n.     atom                  positions (alat units)
         1           H   tau(   1) = (   0.4311180   0.2948670   0.3190103  )
         2           H   tau(   2) = (   0.6385707   0.3628992   0.4308494  )
         3           H   tau(   3) = (   0.6311299   0.5050654   0.3664325  )
         4           H   tau(   4) = (   0.6412459   0.4900622   0.5216099  )
         5           H   tau(   5) = (   0.4268676   0.6399490   0.3877962  )
         6           H   tau(   6) = (   0.4378066   0.6291750   0.5432449  )
         7           H   tau(   7) = (   0.3060382   0.5862757   0.4710488  )
         8           H   tau(   8) = (   0.4486685   0.4086641   0.6509442  )
         9           H   tau(   9) = (   0.4491827   0.2786964   0.5641852  )
        10           H   tau(  10) = (   0.3185926   0.3635048   0.5770921  )
        11           H   tau(  11) = (   0.4244037   0.4348688   0.2499365  )
        12           H   tau(  12) = (   0.3025024   0.3825364   0.3324389  )
        13           Ge  tau(  13) = (   0.3985471   0.3849254   0.3279596  )
        14           Ge  tau(  14) = (   0.4144508   0.3681581   0.5706947  )
        15           Ge  tau(  15) = (   0.4546348   0.4481782   0.4511178  )
        16           Ge  tau(  16) = (   0.4019863   0.5873528   0.4643829  )
        17           Ge  tau(  17) = (   0.6036813   0.4518741   0.4417219  )

   Crystallographic axes

     site n.     atom                  positions (cryst. coord.)
         1           H   tau(   1) = (  0.4311180  0.2948670  0.3190103  )
         2           H   tau(   2) = (  0.6385707  0.3628992  0.4308494  )
         3           H   tau(   3) = (  0.6311299  0.5050654  0.3664325  )
         4           H   tau(   4) = (  0.6412459  0.4900622  0.5216099  )
         5           H   tau(   5) = (  0.4268676  0.6399490  0.3877962  )
         6           H   tau(   6) = (  0.4378066  0.6291750  0.5432449  )
         7           H   tau(   7) = (  0.3060382  0.5862757  0.4710488  )
         8           H   tau(   8) = (  0.4486685  0.4086641  0.6509442  )
         9           H   tau(   9) = (  0.4491827  0.2786964  0.5641852  )
        10           H   tau(  10) = (  0.3185926  0.3635048  0.5770921  )
        11           H   tau(  11) = (  0.4244037  0.4348688  0.2499365  )
        12           H   tau(  12) = (  0.3025024  0.3825364  0.3324389  )
        13           Ge  tau(  13) = (  0.3985471  0.3849254  0.3279596  )
        14           Ge  tau(  14) = (  0.4144508  0.3681581  0.5706947  )
        15           Ge  tau(  15) = (  0.4546348  0.4481782  0.4511178  )
        16           Ge  tau(  16) = (  0.4019863  0.5873528  0.4643829  )
        17           Ge  tau(  17) = (  0.6036813  0.4518741  0.4417219  )

     number of k points=     1  gaussian smearing, width (Ry)=  0.0005
                       cart. coord. in units 2pi/alat
        k(    1) = (   0.0000000   0.0000000   0.0000000), wk =   2.0000000

                       cryst. coord.
        k(    1) = (   0.0000000   0.0000000   0.0000000), wk =   2.0000000

     Dense  grid:   299581 G-vectors     FFT dimensions: ( 108, 108, 108)

     Dynamical RAM for                 wfc:      34.30 MB

     Dynamical RAM for     wfc (w. buffer):      34.30 MB

     Dynamical RAM for           str. fact:       9.14 MB

     Dynamical RAM for           local pot:       0.00 MB

     Dynamical RAM for          nlocal pot:      11.43 MB

     Dynamical RAM for                qrad:       0.72 MB

     Dynamical RAM for          rho,v,vnew:      42.55 MB

     Dynamical RAM for               rhoin:      14.18 MB

     Dynamical RAM for            rho*nmix:      73.14 MB

     Dynamical RAM for           G-vectors:      19.43 MB

     Dynamical RAM for          h,s,v(r/c):       1.32 MB

     Dynamical RAM for          <psi|beta>:       0.01 MB

     Dynamical RAM for                 psi:     137.18 MB

     Dynamical RAM for                hpsi:     137.18 MB

     Dynamical RAM for      wfcinit/wfcrot:      68.67 MB

     Estimated static dynamical RAM per process >     266.65 MB

     Estimated max dynamical RAM per process >     542.35 MB

     Initial potential from superposition of free atoms

     starting charge   29.49943, renormalised to   32.00000

     negative rho (up, down):  4.011E-02 0.000E+00
     Starting wfcs are   32 randomized atomic wfcs +   28 random wfcs

     total cpu time spent up to now is        1.9 secs

     Self-consistent Calculation

     iteration #  1     ecut=    30.00 Ry     beta= 0.70
     Davidson diagonalization with overlap
     ethr =  1.00E-02,  avg # of iterations =  7.0

     negative rho (up, down):  1.148E-02 0.000E+00

     total cpu time spent up to now is        8.3 secs

     total energy              =     -53.40263175 Ry
     Harris-Foulkes estimate   =     -53.62409938 Ry
     estimated scf accuracy    <       0.48472588 Ry

     iteration #  2     ecut=    30.00 Ry     beta= 0.70
     Davidson diagonalization with overlap
     ethr =  1.51E-03,  avg # of iterations =  3.0

     negative rho (up, down):  3.371E-03 0.000E+00

     total cpu time spent up to now is       11.5 secs

     total energy              =     -53.43529134 Ry
     Harris-Foulkes estimate   =     -53.46449343 Ry
     estimated scf accuracy    <       0.04465289 Ry

     iteration #  3     ecut=    30.00 Ry     beta= 0.70
     Davidson diagonalization with overlap
     ethr =  1.40E-04,  avg # of iterations =  6.0

     negative rho (up, down):  1.104E-03 0.000E+00

     total cpu time spent up to now is       16.7 secs

     total energy              =     -53.44650293 Ry
     Harris-Foulkes estimate   =     -53.45849202 Ry
     estimated scf accuracy    <       0.02286980 Ry

     iteration #  4     ecut=    30.00 Ry     beta= 0.70
     Davidson diagonalization with overlap
     ethr =  7.15E-05,  avg # of iterations =  2.0

     negative rho (up, down):  8.337E-05 0.000E+00

     total cpu time spent up to now is       19.8 secs

     total energy              =     -53.45139020 Ry
     Harris-Foulkes estimate   =     -53.45142647 Ry
     estimated scf accuracy    <       0.00013381 Ry

     iteration #  5     ecut=    30.00 Ry     beta= 0.70
     Davidson diagonalization with overlap
     ethr =  4.18E-07,  avg # of iterations =  6.0

     negative rho (up, down):  3.112E-06 0.000E+00

     total cpu time spent up to now is       25.5 secs

     total energy              =     -53.45144874 Ry
     Harris-Foulkes estimate   =     -53.45145093 Ry
     estimated scf accuracy    <       0.00000540 Ry

     iteration #  6     ecut=    30.00 Ry     beta= 0.70
     Davidson diagonalization with overlap
     ethr =  1.69E-08,  avg # of iterations =  1.0

     negative rho (up, down):  9.809E-08 0.000E+00

     total cpu time spent up to now is       28.4 secs

     total energy              =     -53.45144927 Ry
     Harris-Foulkes estimate   =     -53.45144933 Ry
     estimated scf accuracy    <       0.00000026 Ry

     iteration #  7     ecut=    30.00 Ry     beta= 0.70
     Davidson diagonalization with overlap
     ethr =  8.22E-10,  avg # of iterations =  3.0

     total cpu time spent up to now is       32.0 secs

     total energy              =     -53.45144935 Ry
     Harris-Foulkes estimate   =     -53.45144935 Ry
     estimated scf accuracy    <       0.00000003 Ry

     iteration #  8     ecut=    30.00 Ry     beta= 0.70
     Davidson diagonalization with overlap
     ethr =  8.32E-11,  avg # of iterations =  2.0

     total cpu time spent up to now is       35.1 secs

     End of self-consistent calculation

          k = 0.0000 0.0000 0.0000 ( 37387 PWs)   bands (ev):

   -15.2462 -13.7595 -13.7582 -13.7572 -11.2893  -8.4902  -8.4886  -8.4873
    -8.1777  -8.1769  -7.9430  -7.9423  -7.9417  -6.5128  -6.5109  -6.5094
    -0.8435  -0.8060  -0.6966  -0.6934  -0.6894  -0.4116  -0.4114   0.3202
     0.3354   0.3558   0.4410   0.4744   0.4929   0.5066   0.6623   0.7393
     0.8787   0.9054   0.9089   0.9961   1.0875   1.1262   1.1935   1.2033
     1.2561   1.2812   1.3144   1.4484   1.4738   1.5015   1.5256   1.5601
     1.6535   1.6889   1.7733   1.8040   1.8674   1.8890   2.0127   2.0406
     2.0791   2.0820   2.2528   2.2693

     occupation numbers 
     1.0000   1.0000   1.0000   1.0000   1.0000   1.0000   1.0000   1.0000
     1.0000   1.0000   1.0000   1.0000   1.0000   1.0000   1.0000   1.0000
     0.0000   0.0000   0.0000   0.0000   0.0000   0.0000   0.0000   0.0000
     0.0000   0.0000   0.0000   0.0000   0.0000   0.0000   0.0000   0.0000
     0.0000   0.0000   0.0000   0.0000   0.0000   0.0000   0.0000   0.0000
     0.0000   0.0000   0.0000   0.0000   0.0000   0.0000   0.0000   0.0000
     0.0000   0.0000   0.0000   0.0000   0.0000   0.0000   0.0000   0.0000
     0.0000   0.0000   0.0000   0.0000

     the Fermi energy is    -2.1027 ev

!    total energy              =     -53.45144936 Ry
     Harris-Foulkes estimate   =     -53.45144936 Ry
     estimated scf accuracy    <          4.1E-09 Ry

     The total energy is the sum of the following terms:

     one-electron contribution =    -193.99421379 Ry
     hartree contribution      =      98.30830679 Ry
     xc contribution           =     -19.25243724 Ry
     ewald contribution        =      61.48689488 Ry
     smearing contrib. (-TS)   =      -0.00000000 Ry

     convergence has been achieved in   8 iterations

     Forces acting on atoms (cartesian axes, Ry/au):

     atom    1 type  2   force =     0.00111091   -0.00270905   -0.00018052
     atom    2 type  2   force =     0.00093927   -0.00273521   -0.00030522
     atom    3 type  2   force =     0.00066408    0.00160846   -0.00233482
     atom    4 type  2   force =     0.00100051    0.00118170    0.00246706
     atom    5 type  2   force =     0.00083116    0.00143892   -0.00242966
     atom    6 type  2   force =     0.00112483    0.00110156    0.00244525
     atom    7 type  2   force =    -0.00286053   -0.00018941    0.00021666
     atom    8 type  2   force =     0.00110742    0.00129334    0.00235024
     atom    9 type  2   force =     0.00109673   -0.00266224   -0.00033171
     atom   10 type  2   force =    -0.00290512   -0.00004315    0.00009939
     atom   11 type  2   force =     0.00088325    0.00162412   -0.00230037
     atom   12 type  2   force =    -0.00294978   -0.00000136    0.00031624
     atom   13 type  1   force =    -0.00048508   -0.00049084   -0.00102476
     atom   14 type  1   force =    -0.00034615   -0.00063165    0.00097452
     atom   15 type  1   force =     0.00000238    0.00001942    0.00002677
     atom   16 type  1   force =    -0.00042581    0.00114654    0.00009364
     atom   17 type  1   force =     0.00121194    0.00004882   -0.00008270
     The non-local contrib.  to forces
     atom    1 type  2   force =     0.00000000    0.00000000    0.00000000
     atom    2 type  2   force =     0.00000000    0.00000000    0.00000000
     atom    3 type  2   force =     0.00000000    0.00000000    0.00000000
     atom    4 type  2   force =     0.00000000    0.00000000    0.00000000
     atom    5 type  2   force =     0.00000000    0.00000000    0.00000000
     atom    6 type  2   force =     0.00000000    0.00000000    0.00000000
     atom    7 type  2   force =     0.00000000    0.00000000    0.00000000
     atom    8 type  2   force =     0.00000000    0.00000000    0.00000000
     atom    9 type  2   force =     0.00000000    0.00000000    0.00000000
     atom   10 type  2   force =     0.00000000    0.00000000    0.00000000
     atom   11 type  2   force =     0.00000000    0.00000000    0.00000000
     atom   12 type  2   force =     0.00000000    0.00000000    0.00000000
     atom   13 type  1   force =    -0.00820899   -0.00929020   -0.01798830
     atom   14 type  1   force =    -0.00587661   -0.01170878    0.01749601
     atom   15 type  1   force =     0.00003513   -0.00011156    0.00007824
     atom   16 type  1   force =    -0.00767506    0.02036659    0.00197574
     atom   17 type  1   force =     0.02181031    0.00050787   -0.00135680
     The ionic contribution  to forces
     atom    1 type  2   force =     0.27203250   -1.42547533   -0.50571254
     atom    2 type  2   force =     0.93557315   -1.20667853   -0.17813996
     atom    3 type  2   force =     0.83330111    0.74134306   -1.06187373
     atom    4 type  2   force =     0.97061033    0.53730045    1.06514818
     atom    5 type  2   force =     0.17752131    1.14354371   -1.00916146
     atom    6 type  2   force =     0.32745483    0.99899288    1.12169059
     atom    7 type  2   force =    -1.47298020    0.41738412    0.13247231
     atom    8 type  2   force =     0.34482620    0.30520749    1.45910016
     atom    9 type  2   force =     0.35115263   -1.46730951    0.28329291
     atom   10 type  2   force =    -1.43483529   -0.31206549    0.45916926
     atom   11 type  2   force =     0.18006191    0.48885391   -1.43879166
     atom   12 type  2   force =    -1.48502053   -0.22940158   -0.32196935
     atom   13 type  1   force =    -0.97302932   -1.09431356   -2.13733403
     atom   14 type  1   force =    -0.69754855   -1.38906852    2.07436347
     atom   15 type  1   force =     0.00381178    0.01016137   -0.00453313
     atom   16 type  1   force =    -0.91330508    2.41037679    0.22846818
     atom   17 type  1   force =     2.58037322    0.07114873   -0.16618920
     The local contribution  to forces
     atom    1 type  2   force =    -0.27092787    1.42276521    0.50553204
     atom    2 type  2   force =    -0.93463044    1.20394094    0.17783637
     atom    3 type  2   force =    -0.83263346   -0.73973211    1.05953793
     atom    4 type  2   force =    -0.96960772   -0.53611736   -1.06267760
     atom    5 type  2   force =    -0.17669532   -1.14210399    1.00673535
     atom    6 type  2   force =    -0.32633610   -0.99789246   -1.11924513
     atom    7 type  2   force =     1.47012074   -0.41757495   -0.13225338
     atom    8 type  2   force =    -0.34372509   -0.30391462   -1.45675162
     atom    9 type  2   force =    -0.35006204    1.46464943   -0.28362216
     atom   10 type  2   force =     1.43193243    0.31202467   -0.45907012
     atom   11 type  2   force =    -0.17918469   -0.48723057    1.43649047
     atom   12 type  2   force =     1.48206941    0.22940018    0.32228773
     atom   13 type  1   force =     0.98072912    1.10311321    2.15430882
     atom   14 type  1   force =     0.70306003    1.40015871   -2.09088923
     atom   15 type  1   force =    -0.00388039   -0.01002805    0.00450090
     atom   16 type  1   force =     0.92053649   -2.42960860   -0.23033823
     atom   17 type  1   force =    -2.60096704   -0.07160497    0.16747349
     The core correction contribution to forces
     atom    1 type  2   force =     0.00000000    0.00000000    0.00000000
     atom    2 type  2   force =     0.00000000    0.00000000    0.00000000
     atom    3 type  2   force =     0.00000000    0.00000000    0.00000000
     atom    4 type  2   force =     0.00000000    0.00000000    0.00000000
     atom    5 type  2   force =     0.00000000    0.00000000    0.00000000
     atom    6 type  2   force =     0.00000000    0.00000000    0.00000000
     atom    7 type  2   force =     0.00000000    0.00000000    0.00000000
     atom    8 type  2   force =     0.00000000    0.00000000    0.00000000
     atom    9 type  2   force =     0.00000000    0.00000000    0.00000000
     atom   10 type  2   force =     0.00000000    0.00000000    0.00000000
     atom   11 type  2   force =     0.00000000    0.00000000    0.00000000
     atom   12 type  2   force =     0.00000000    0.00000000    0.00000000
     atom   13 type  1   force =     0.00000000    0.00000000    0.00000000
     atom   14 type  1   force =     0.00000000    0.00000000    0.00000000
     atom   15 type  1   force =     0.00000000    0.00000000    0.00000000
     atom   16 type  1   force =     0.00000000    0.00000000    0.00000000
     atom   17 type  1   force =     0.00000000    0.00000000    0.00000000
     The Hubbard contrib.    to forces
     atom    1 type  2   force =     0.00000000    0.00000000    0.00000000
     atom    2 type  2   force =     0.00000000    0.00000000    0.00000000
     atom    3 type  2   force =     0.00000000    0.00000000    0.00000000
     atom    4 type  2   force =     0.00000000    0.00000000    0.00000000
     atom    5 type  2   force =     0.00000000    0.00000000    0.00000000
     atom    6 type  2   force =     0.00000000    0.00000000    0.00000000
     atom    7 type  2   force =     0.00000000    0.00000000    0.00000000
     atom    8 type  2   force =     0.00000000    0.00000000    0.00000000
     atom    9 type  2   force =     0.00000000    0.00000000    0.00000000
     atom   10 type  2   force =     0.00000000    0.00000000    0.00000000
     atom   11 type  2   force =     0.00000000    0.00000000    0.00000000
     atom   12 type  2   force =     0.00000000    0.00000000    0.00000000
     atom   13 type  1   force =     0.00000000    0.00000000    0.00000000
     atom   14 type  1   force =     0.00000000    0.00000000    0.00000000
     atom   15 type  1   force =     0.00000000    0.00000000    0.00000000
     atom   16 type  1   force =     0.00000000    0.00000000    0.00000000
     atom   17 type  1   force =     0.00000000    0.00000000    0.00000000
     The SCF correction term to forces
     atom    1 type  2   force =     0.00000519    0.00000112    0.00000042
     atom    2 type  2   force =    -0.00000452    0.00000243   -0.00000119
     atom    3 type  2   force =    -0.00000466   -0.00000245    0.00000142
     atom    4 type  2   force =    -0.00000318   -0.00000134   -0.00000308
     atom    5 type  2   force =     0.00000408   -0.00000075   -0.00000311
     atom    6 type  2   force =     0.00000501    0.00000120    0.00000023
     atom    7 type  2   force =    -0.00000216    0.00000146   -0.00000183
     atom    8 type  2   force =     0.00000523    0.00000051    0.00000215
     atom    9 type  2   force =     0.00000505   -0.00000211   -0.00000202
     atom   10 type  2   force =    -0.00000335   -0.00000228    0.00000069
     atom   11 type  2   force =     0.00000494    0.00000083    0.00000126
     atom   12 type  2   force =     0.00000025    0.00000009   -0.00000171
     atom   13 type  1   force =     0.00002303   -0.00000023   -0.00001081
     atom   14 type  1   force =     0.00001790   -0.00001301    0.00000470
     atom   15 type  1   force =     0.00003477   -0.00000229   -0.00001881
     atom   16 type  1   force =     0.00001675    0.00001180   -0.00001162
     atom   17 type  1   force =    -0.00000563   -0.00000276   -0.00000975

     Total force =     0.010401     Total SCF correction =     0.000061

     BFGS Geometry Optimization

     number of scf cycles    =   1
     number of bfgs steps    =   0

     energy   new            =     -53.4514493571 Ry

     new trust radius        =       0.0029666858 bohr
     new conv_thr            =       0.0000000100 Ry


ATOMIC_POSITIONS (bohr)
H       12.934649914   8.843301811   9.570127015
H       19.158059162  10.884241426  12.925177262
H       18.934561374  15.153569858  10.990640270
H       19.238376790  14.703047176  15.650763049
H       12.806859699  19.199908283  11.631456676
H       13.135323498  18.876350086  16.299793341
H        9.178284430  17.588082281  14.131679430
H       13.461161564  12.261215148  19.530677501
H       13.476578112   8.358228689  16.925223185
H        9.554872935  10.905100160  17.312861487
H       12.732995271  13.047687841   7.495795339
H        9.072120718  11.476091316   9.973482680
Ge      11.955928575  11.547270293   9.837762313
Ge      12.433178685  11.044110941  17.121815101
Ge      13.639045967  13.445364152  13.533561601
Ge      12.059162740  17.621729288  13.931580361
Ge      18.111650570  13.556271253  13.251573391



     Writing output data file Ge5H12.save/
     Message from routine punch:
     wavefunctions written to file
     NEW-OLD atomic charge density approx. for the potential

     negative rho (up, down):  4.171E-04 0.000E+00

     total cpu time spent up to now is       36.3 secs

     Self-consistent Calculation

     iteration #  1     ecut=    30.00 Ry     beta= 0.70
     Davidson diagonalization with overlap
     ethr =  1.00E-06,  avg # of iterations =  3.0

     Threshold (ethr) on eigenvalues was too large:
     Diagonalizing with lowered threshold

     Davidson diagonalization with overlap
     ethr =  1.78E-08,  avg # of iterations =  1.0

     negative rho (up, down):  9.051E-05 0.000E+00

     total cpu time spent up to now is       43.3 secs

     total energy              =     -53.45154304 Ry
     Harris-Foulkes estimate   =     -53.45154572 Ry
     estimated scf accuracy    <       0.00000589 Ry

     iteration #  2     ecut=    30.00 Ry     beta= 0.70
     Davidson diagonalization with overlap
     ethr =  1.84E-08,  avg # of iterations =  2.0

     negative rho (up, down):  2.407E-05 0.000E+00

     total cpu time spent up to now is       46.5 secs

     total energy              =     -53.45154412 Ry
     Harris-Foulkes estimate   =     -53.45154435 Ry
     estimated scf accuracy    <       0.00000051 Ry

     iteration #  3     ecut=    30.00 Ry     beta= 0.70
     Davidson diagonalization with overlap
     ethr =  1.59E-09,  avg # of iterations =  2.0

     negative rho (up, down):  2.469E-06 0.000E+00

     total cpu time spent up to now is       49.7 secs

     total energy              =     -53.45154425 Ry
     Harris-Foulkes estimate   =     -53.45154427 Ry
     estimated scf accuracy    <       0.00000006 Ry

     iteration #  4     ecut=    30.00 Ry     beta= 0.70
     Davidson diagonalization with overlap
     ethr =  1.90E-10,  avg # of iterations =  2.0

     negative rho (up, down):  1.089E-08 0.000E+00

     total cpu time spent up to now is       52.8 secs

     total energy              =     -53.45154429 Ry
     Harris-Foulkes estimate   =     -53.45154428 Ry
     estimated scf accuracy    <       0.00000001 Ry

     iteration #  5     ecut=    30.00 Ry     beta= 0.70
     Davidson diagonalization with overlap
     ethr =  3.97E-11,  avg # of iterations =  2.0

     total cpu time spent up to now is       55.9 secs

     End of self-consistent calculation

          k = 0.0000 0.0000 0.0000 ( 37387 PWs)   bands (ev):

   -15.2419 -13.7546 -13.7534 -13.7523 -11.2855  -8.4876  -8.4861  -8.4849
    -8.1754  -8.1746  -7.9409  -7.9403  -7.9398  -6.5110  -6.5092  -6.5077
    -0.8460  -0.8110  -0.7002  -0.6970  -0.6931  -0.4142  -0.4141   0.3182
     0.3333   0.3536   0.4406   0.4725   0.4910   0.5046   0.6620   0.7390
     0.8772   0.9039   0.9083   0.9942   1.0867   1.1251   1.1926   1.2025
     1.2557   1.2815   1.3145   1.4454   1.4717   1.4996   1.5245   1.5583
     1.6509   1.6867   1.7728   1.8039   1.8667   1.8886   2.0116   2.0401
     2.0787   2.0815   2.2520   2.2688

     occupation numbers 
     1.0000   1.0000   1.0000   1.0000   1.0000   1.0000   1.0000   1.0000
     1.0000   1.0000   1.0000   1.0000   1.0000   1.0000   1.0000   1.0000
     0.0000   0.0000   0.0000   0.0000   0.0000   0.0000   0.0000   0.0000
     0.0000   0.0000   0.0000   0.0000   0.0000   0.0000   0.0000   0.0000
     0.0000   0.0000   0.0000   0.0000   0.0000   0.0000   0.0000   0.0000
     0.0000   0.0000   0.0000   0.0000   0.0000   0.0000   0.0000   0.0000
     0.0000   0.0000   0.0000   0.0000   0.0000   0.0000   0.0000   0.0000
     0.0000   0.0000   0.0000   0.0000

     the Fermi energy is    -2.1021 ev

!    total energy              =     -53.45154429 Ry
     Harris-Foulkes estimate   =     -53.45154429 Ry
     estimated scf accuracy    <          8.1E-11 Ry

     The total energy is the sum of the following terms:

     one-electron contribution =    -193.87902505 Ry
     hartree contribution      =      98.24995500 Ry
     xc contribution           =     -19.24600516 Ry
     ewald contribution        =      61.42353092 Ry
     smearing contrib. (-TS)   =      -0.00000000 Ry

     convergence has been achieved in   5 iterations

     Forces acting on atoms (cartesian axes, Ry/au):

     atom    1 type  2   force =     0.00078669   -0.00193369   -0.00016347
     atom    2 type  2   force =     0.00070613   -0.00194463   -0.00021403
     atom    3 type  2   force =     0.00050126    0.00114467   -0.00167772
     atom    4 type  2   force =     0.00074763    0.00084895    0.00175727
     atom    5 type  2   force =     0.00058337    0.00104880   -0.00174176
     atom    6 type  2   force =     0.00078368    0.00080915    0.00175408
     atom    7 type  2   force =    -0.00205504   -0.00010781    0.00016305
     atom    8 type  2   force =     0.00078560    0.00089775    0.00171019
     atom    9 type  2   force =     0.00076801   -0.00191358   -0.00021311
     atom   10 type  2   force =    -0.00208949   -0.00004308    0.00010464
     atom   11 type  2   force =     0.00062112    0.00114860   -0.00167320
     atom   12 type  2   force =    -0.00212426   -0.00001268    0.00021009
     atom   13 type  1   force =    -0.00063088   -0.00067676   -0.00136027
     atom   14 type  1   force =    -0.00044800   -0.00086148    0.00130633
     atom   15 type  1   force =     0.00000266    0.00001439    0.00001345
     atom   16 type  1   force =    -0.00056066    0.00153294    0.00013036
     atom   17 type  1   force =     0.00162218    0.00004846   -0.00010593
     The non-local contrib.  to forces
     atom    1 type  2   force =     0.00000000    0.00000000    0.00000000
     atom    2 type  2   force =     0.00000000    0.00000000    0.00000000
     atom    3 type  2   force =     0.00000000    0.00000000    0.00000000
     atom    4 type  2   force =     0.00000000    0.00000000    0.00000000
     atom    5 type  2   force =     0.00000000    0.00000000    0.00000000
     atom    6 type  2   force =     0.00000000    0.00000000    0.00000000
     atom    7 type  2   force =     0.00000000    0.00000000    0.00000000
     atom    8 type  2   force =     0.00000000    0.00000000    0.00000000
     atom    9 type  2   force =     0.00000000    0.00000000    0.00000000
     atom   10 type  2   force =     0.00000000    0.00000000    0.00000000
     atom   11 type  2   force =     0.00000000    0.00000000    0.00000000
     atom   12 type  2   force =     0.00000000    0.00000000    0.00000000
     atom   13 type  1   force =    -0.00819604   -0.00928222   -0.01797077
     atom   14 type  1   force =    -0.00586765   -0.01169813    0.01747868
     atom   15 type  1   force =     0.00003770   -0.00011182    0.00007611
     atom   16 type  1   force =    -0.00766568    0.02034412    0.00197436
     atom   17 type  1   force =     0.02179042    0.00050605   -0.00135649
     The ionic contribution  to forces
     atom    1 type  2   force =     0.27170241   -1.42338815   -0.50492610
     atom    2 type  2   force =     0.93415971   -1.20499105   -0.17787351
     atom    3 type  2   force =     0.83202966    0.74030297   -1.06041480
     atom    4 type  2   force =     0.96914754    0.53655385    1.06367469
     atom    5 type  2   force =     0.17731004    1.14182108   -1.00778041
     atom    6 type  2   force =     0.32702294    0.99748356    1.12013873
     atom    7 type  2   force =    -1.47090496    0.41670974    0.13229633
     atom    8 type  2   force =     0.34439280    0.30481799    1.45696719
     atom    9 type  2   force =     0.35068924   -1.46518835    0.28281638
     atom   10 type  2   force =    -1.43281495   -0.31157905    0.45846184
     atom   11 type  2   force =     0.17986348    0.48820836   -1.43665770
     atom   12 type  2   force =    -1.48287824   -0.22904803   -0.32141663
     atom   13 type  1   force =    -0.97335257   -1.09464570   -2.13796283
     atom   14 type  1   force =    -0.69776395   -1.38948269    2.07495345
     atom   15 type  1   force =     0.00381795    0.01012910   -0.00453944
     atom   16 type  1   force =    -0.91354470    2.41113748    0.22850260
     atom   17 type  1   force =     2.58112359    0.07115888   -0.16623977
     The local contribution  to forces
     atom    1 type  2   force =    -0.27091174    1.42144423    0.50476152
     atom    2 type  2   force =    -0.93345000    1.20303537    0.17765817
     atom    3 type  2   force =    -0.83152594   -0.73915156    1.05872738
     atom    4 type  2   force =    -0.96839624   -0.53570030   -1.06190712
     atom    5 type  2   force =    -0.17672361   -1.14076703    1.00602886
     atom    6 type  2   force =    -0.32623493   -0.99667019   -1.11837467
     atom    7 type  2   force =     1.46883955   -0.41681791   -0.13213248
     atom    8 type  2   force =    -0.34360284   -0.30391522   -1.45524900
     atom    9 type  2   force =    -0.34991704    1.46326515   -0.28303035
     atom   10 type  2   force =     1.43071445    0.31153518   -0.45835649
     atom   11 type  2   force =    -0.17923926   -0.48705313    1.43497659
     atom   12 type  2   force =     1.48074333    0.22903493    0.32162745
     atom   13 type  1   force =     0.98091680    1.10325057    2.15457246
     atom   14 type  1   force =     0.70318298    1.40031865   -2.09112483
     atom   15 type  1   force =    -0.00385335   -0.01000313    0.00447686
     atom   16 type  1   force =     0.92064890   -2.42994745   -0.23034622
     atom   17 type  1   force =    -2.60129084   -0.07161646    0.16749043
     The core correction contribution to forces
     atom    1 type  2   force =     0.00000000    0.00000000    0.00000000
     atom    2 type  2   force =     0.00000000    0.00000000    0.00000000
     atom    3 type  2   force =     0.00000000    0.00000000    0.00000000
     atom    4 type  2   force =     0.00000000    0.00000000    0.00000000
     atom    5 type  2   force =     0.00000000    0.00000000    0.00000000
     atom    6 type  2   force =     0.00000000    0.00000000    0.00000000
     atom    7 type  2   force =     0.00000000    0.00000000    0.00000000
     atom    8 type  2   force =     0.00000000    0.00000000    0.00000000
     atom    9 type  2   force =     0.00000000    0.00000000    0.00000000
     atom   10 type  2   force =     0.00000000    0.00000000    0.00000000
     atom   11 type  2   force =     0.00000000    0.00000000    0.00000000
     atom   12 type  2   force =     0.00000000    0.00000000    0.00000000
     atom   13 type  1   force =     0.00000000    0.00000000    0.00000000
     atom   14 type  1   force =     0.00000000    0.00000000    0.00000000
     atom   15 type  1   force =     0.00000000    0.00000000    0.00000000
     atom   16 type  1   force =     0.00000000    0.00000000    0.00000000
     atom   17 type  1   force =     0.00000000    0.00000000    0.00000000
     The Hubbard contrib.    to forces
     atom    1 type  2   force =     0.00000000    0.00000000    0.00000000
     atom    2 type  2   force =     0.00000000    0.00000000    0.00000000
     atom    3 type  2   force =     0.00000000    0.00000000    0.00000000
     atom    4 type  2   force =     0.00000000    0.00000000    0.00000000
     atom    5 type  2   force =     0.00000000    0.00000000    0.00000000
     atom    6 type  2   force =     0.00000000    0.00000000    0.00000000
     atom    7 type  2   force =     0.00000000    0.00000000    0.00000000
     atom    8 type  2   force =     0.00000000    0.00000000    0.00000000
     atom    9 type  2   force =     0.00000000    0.00000000    0.00000000
     atom   10 type  2   force =     0.00000000    0.00000000    0.00000000
     atom   11 type  2   force =     0.00000000    0.00000000    0.00000000
     atom   12 type  2   force =     0.00000000    0.00000000    0.00000000
     atom   13 type  1   force =     0.00000000    0.00000000    0.00000000
     atom   14 type  1   force =     0.00000000    0.00000000    0.00000000
     atom   15 type  1   force =     0.00000000    0.00000000    0.00000000
     atom   16 type  1   force =     0.00000000    0.00000000    0.00000000
     atom   17 type  1   force =     0.00000000    0.00000000    0.00000000
     The SCF correction term to forces
     atom    1 type  2   force =    -0.00000415    0.00001018    0.00000112
     atom    2 type  2   force =    -0.00000376    0.00001099    0.00000133
     atom    3 type  2   force =    -0.00000263   -0.00000679    0.00000971
     atom    4 type  2   force =    -0.00000385   -0.00000465   -0.00001029
     atom    5 type  2   force =    -0.00000324   -0.00000531    0.00000980
     atom    6 type  2   force =    -0.00000451   -0.00000428   -0.00000997
     atom    7 type  2   force =     0.00001019    0.00000031   -0.00000078
     atom    8 type  2   force =    -0.00000454   -0.00000508   -0.00000799
     atom    9 type  2   force =    -0.00000437    0.00000957    0.00000087
     atom   10 type  2   force =     0.00001083    0.00000074   -0.00000070
     atom   11 type  2   force =    -0.00000327   -0.00000668    0.00000792
     atom   12 type  2   force =     0.00001048    0.00000037   -0.00000072
     atom   13 type  1   force =     0.00000076    0.00000055    0.00000087
     atom   14 type  1   force =     0.00000045    0.00000064   -0.00000096
     atom   15 type  1   force =     0.00000018    0.00000018   -0.00000007
     atom   16 type  1   force =     0.00000064   -0.00000125   -0.00000038
     atom   17 type  1   force =    -0.00000116   -0.00000007   -0.00000010

     Total force =     0.007956     Total SCF correction =     0.000039

     number of scf cycles    =   2
     number of bfgs steps    =   1

     energy   old            =     -53.4514493571 Ry
     energy   new            =     -53.4515442938 Ry

     CASE: energy  _new < energy  _old

     new trust radius        =       0.0032633544 bohr
     new conv_thr            =       0.0000000005 Ry


ATOMIC_POSITIONS (bohr)
H       12.935854532   8.840343263   9.569882310
H       19.159133972  10.881264929  12.924849204
H       18.935324048  15.155321735  10.988075103
H       19.239515433  14.704345220  15.653452254
H       12.807753802  19.201509554  11.628792952
H       13.136525534  18.877584510  16.302475734
H        9.175142286  17.587913055  14.131927591
H       13.462364287  12.262592670  19.533288999
H       13.477755476   8.355302988  16.924893433
H        9.551678483  10.905036168  17.313016330
H       12.733947046  13.049446873   7.493240218
H        9.068873523  11.476073748   9.973806564
Ge      11.955007775  11.546285820   9.835779277
Ge      12.432524621  11.042856992  17.123718432
Ge      13.639049885  13.445386085  13.533583066
Ge      12.058345007  17.623963122  13.931769896
Ge      18.114014294  13.556343267  13.251418636



     Writing output data file Ge5H12.save/
     Message from routine punch:
     wavefunctions written to file
     NEW-OLD atomic charge density approx. for the potential

     negative rho (up, down):  4.698E-04 0.000E+00

     total cpu time spent up to now is       57.0 secs

     Self-consistent Calculation

     iteration #  1     ecut=    30.00 Ry     beta= 0.70
     Davidson diagonalization with overlap
     ethr =  1.00E-06,  avg # of iterations =  2.0

     Threshold (ethr) on eigenvalues was too large:
     Diagonalizing with lowered threshold

     Davidson diagonalization with overlap
     ethr =  2.30E-08,  avg # of iterations =  1.0

     negative rho (up, down):  1.037E-04 0.000E+00

     total cpu time spent up to now is       63.8 secs

     total energy              =     -53.45162439 Ry
     Harris-Foulkes estimate   =     -53.45162780 Ry
     estimated scf accuracy    <       0.00000757 Ry

     iteration #  2     ecut=    30.00 Ry     beta= 0.70
     Davidson diagonalization with overlap
     ethr =  2.36E-08,  avg # of iterations =  2.0

     negative rho (up, down):  3.058E-05 0.000E+00

     total cpu time spent up to now is       66.9 secs

     total energy              =     -53.45162571 Ry
     Harris-Foulkes estimate   =     -53.45162616 Ry
     estimated scf accuracy    <       0.00000087 Ry

     iteration #  3     ecut=    30.00 Ry     beta= 0.70
     Davidson diagonalization with overlap
     ethr =  2.71E-09,  avg # of iterations =  2.0

     negative rho (up, down):  4.127E-06 0.000E+00

     total cpu time spent up to now is       70.1 secs

     total energy              =     -53.45162594 Ry
     Harris-Foulkes estimate   =     -53.45162599 Ry
     estimated scf accuracy    <       0.00000013 Ry

     iteration #  4     ecut=    30.00 Ry     beta= 0.70
     Davidson diagonalization with overlap
     ethr =  4.10E-10,  avg # of iterations =  2.0

     negative rho (up, down):  1.379E-08 0.000E+00

     total cpu time spent up to now is       73.1 secs

     total energy              =     -53.45162600 Ry
     Harris-Foulkes estimate   =     -53.45162598 Ry
     estimated scf accuracy    <       0.00000001 Ry

     iteration #  5     ecut=    30.00 Ry     beta= 0.70
     Davidson diagonalization with overlap
     ethr =  4.34E-11,  avg # of iterations =  2.0

     total cpu time spent up to now is       76.1 secs

     End of self-consistent calculation

          k = 0.0000 0.0000 0.0000 ( 37387 PWs)   bands (ev):

   -15.2341 -13.7491 -13.7478 -13.7467 -11.2805  -8.4846  -8.4832  -8.4820
    -8.1734  -8.1727  -7.9395  -7.9389  -7.9384  -6.5065  -6.5047  -6.5032
    -0.8499  -0.8162  -0.7030  -0.6998  -0.6959  -0.4154  -0.4152   0.3158
     0.3308   0.3512   0.4395   0.4705   0.4889   0.5025   0.6617   0.7385
     0.8752   0.9019   0.9077   0.9916   1.0856   1.1238   1.1912   1.2012
     1.2551   1.2814   1.3143   1.4416   1.4689   1.4973   1.5230   1.5555
     1.6479   1.6840   1.7719   1.8033   1.8655   1.8876   2.0099   2.0389
     2.0778   2.0805   2.2512   2.2679

     occupation numbers 
     1.0000   1.0000   1.0000   1.0000   1.0000   1.0000   1.0000   1.0000
     1.0000   1.0000   1.0000   1.0000   1.0000   1.0000   1.0000   1.0000
     0.0000   0.0000   0.0000   0.0000   0.0000   0.0000   0.0000   0.0000
     0.0000   0.0000   0.0000   0.0000   0.0000   0.0000   0.0000   0.0000
     0.0000   0.0000   0.0000   0.0000   0.0000   0.0000   0.0000   0.0000
     0.0000   0.0000   0.0000   0.0000   0.0000   0.0000   0.0000   0.0000
     0.0000   0.0000   0.0000   0.0000   0.0000   0.0000   0.0000   0.0000
     0.0000   0.0000   0.0000   0.0000

     the Fermi energy is    -2.1008 ev

!    total energy              =     -53.45162601 Ry
     Harris-Foulkes estimate   =     -53.45162600 Ry
     estimated scf accuracy    <          1.0E-10 Ry

     The total energy is the sum of the following terms:

     one-electron contribution =    -193.73184358 Ry
     hartree contribution      =      98.17622410 Ry
     xc contribution           =     -19.23907051 Ry
     ewald contribution        =      61.34306398 Ry
     smearing contrib. (-TS)   =      -0.00000000 Ry

     convergence has been achieved in   5 iterations

     Forces acting on atoms (cartesian axes, Ry/au):

     atom    1 type  2   force =     0.00045621   -0.00120843   -0.00018616
     atom    2 type  2   force =     0.00052927   -0.00118335   -0.00012954
     atom    3 type  2   force =     0.00039066    0.00069712   -0.00104448
     atom    4 type  2   force =     0.00054965    0.00052810    0.00106708
     atom    5 type  2   force =     0.00032822    0.00071694   -0.00107366
     atom    6 type  2   force =     0.00043945    0.00057156    0.00109054
     atom    7 type  2   force =    -0.00128695    0.00001563    0.00011426
     atom    8 type  2   force =     0.00046186    0.00049021    0.00112655
     atom    9 type  2   force =     0.00043899   -0.00121764   -0.00006104
     atom   10 type  2   force =    -0.00130855   -0.00006870    0.00014726
     atom   11 type  2   force =     0.00034848    0.00066859   -0.00110276
     atom   12 type  2   force =    -0.00133821   -0.00004450    0.00006668
     atom   13 type  1   force =    -0.00065005   -0.00070649   -0.00140421
     atom   14 type  1   force =    -0.00046078   -0.00089597    0.00135365
     atom   15 type  1   force =    -0.00000074    0.00000802    0.00000436
     atom   16 type  1   force =    -0.00057976    0.00158390    0.00013781
     atom   17 type  1   force =     0.00168226    0.00004501   -0.00010633
     The non-local contrib.  to forces
     atom    1 type  2   force =     0.00000000    0.00000000    0.00000000
     atom    2 type  2   force =     0.00000000    0.00000000    0.00000000
     atom    3 type  2   force =     0.00000000    0.00000000    0.00000000
     atom    4 type  2   force =     0.00000000    0.00000000    0.00000000
     atom    5 type  2   force =     0.00000000    0.00000000    0.00000000
     atom    6 type  2   force =     0.00000000    0.00000000    0.00000000
     atom    7 type  2   force =     0.00000000    0.00000000    0.00000000
     atom    8 type  2   force =     0.00000000    0.00000000    0.00000000
     atom    9 type  2   force =     0.00000000    0.00000000    0.00000000
     atom   10 type  2   force =     0.00000000    0.00000000    0.00000000
     atom   11 type  2   force =     0.00000000    0.00000000    0.00000000
     atom   12 type  2   force =     0.00000000    0.00000000    0.00000000
     atom   13 type  1   force =    -0.00816979   -0.00925577   -0.01791751
     atom   14 type  1   force =    -0.00584971   -0.01166511    0.01742868
     atom   15 type  1   force =     0.00003818   -0.00011214    0.00007594
     atom   16 type  1   force =    -0.00764470    0.02028118    0.00197052
     atom   17 type  1   force =     0.02172703    0.00050399   -0.00135238
     The ionic contribution  to forces
     atom    1 type  2   force =     0.27160126   -1.42124937   -0.50378617
     atom    2 type  2   force =     0.93235478   -1.20345349   -0.17759184
     atom    3 type  2   force =     0.83034450    0.73932606   -1.05904098
     atom    4 type  2   force =     0.96728958    0.53585763    1.06234571
     atom    5 type  2   force =     0.17729349    1.13975254   -1.00656537
     atom    6 type  2   force =     0.32679677    0.99561089    1.11867667
     atom    7 type  2   force =    -1.46880251    0.41560878    0.13209522
     atom    8 type  2   force =     0.34413428    0.30472707    1.45458938
     atom    9 type  2   force =     0.35039944   -1.46296681    0.28196451
     atom   10 type  2   force =    -1.43080684   -0.31085037    0.45740392
     atom   11 type  2   force =     0.17987341    0.48782869   -1.43426004
     atom   12 type  2   force =    -1.48070080   -0.22850393   -0.32047589
     atom   13 type  1   force =    -0.97338370   -1.09462442   -2.13790521
     atom   14 type  1   force =    -0.69776142   -1.38943986    2.07486870
     atom   15 type  1   force =     0.00381512    0.01009373   -0.00454250
     atom   16 type  1   force =    -0.91348498    2.41113098    0.22845815
     atom   17 type  1   force =     2.58103761    0.07115188   -0.16623426
     The local contribution  to forces
     atom    1 type  2   force =    -0.27114065    1.42003026    0.50359899
     atom    2 type  2   force =    -0.93182195    1.20225863    0.17746094
     atom    3 type  2   force =    -0.82995150   -0.73862191    1.05798630
     atom    4 type  2   force =    -0.96673627   -0.53532469   -1.06126789
     atom    5 type  2   force =    -0.17696194   -1.13903027    1.00548129
     atom    6 type  2   force =    -0.32635271   -0.99503504   -1.11757566
     atom    7 type  2   force =     1.46750476   -0.41559366   -0.13198015
     atom    8 type  2   force =    -0.34366771   -0.30423153   -1.45345447
     atom    9 type  2   force =    -0.34995597    1.46173916   -0.28202661
     atom   10 type  2   force =     1.42948673    0.31078103   -0.45725609
     atom   11 type  2   force =    -0.17952149   -0.48715287    1.43314902
     atom   12 type  2   force =     1.47935139    0.22845916    0.32054362
     atom   13 type  1   force =     0.98090335    1.10317391    2.15441877
     atom   14 type  1   force =     0.70315036    1.40020890   -2.09094388
     atom   15 type  1   force =    -0.00385426   -0.00997362    0.00447086
     atom   16 type  1   force =     0.92054973   -2.42982819   -0.23029087
     atom   17 type  1   force =    -2.60108267   -0.07161092    0.16748025
     The core correction contribution to forces
     atom    1 type  2   force =     0.00000000    0.00000000    0.00000000
     atom    2 type  2   force =     0.00000000    0.00000000    0.00000000
     atom    3 type  2   force =     0.00000000    0.00000000    0.00000000
     atom    4 type  2   force =     0.00000000    0.00000000    0.00000000
     atom    5 type  2   force =     0.00000000    0.00000000    0.00000000
     atom    6 type  2   force =     0.00000000    0.00000000    0.00000000
     atom    7 type  2   force =     0.00000000    0.00000000    0.00000000
     atom    8 type  2   force =     0.00000000    0.00000000    0.00000000
     atom    9 type  2   force =     0.00000000    0.00000000    0.00000000
     atom   10 type  2   force =     0.00000000    0.00000000    0.00000000
     atom   11 type  2   force =     0.00000000    0.00000000    0.00000000
     atom   12 type  2   force =     0.00000000    0.00000000    0.00000000
     atom   13 type  1   force =     0.00000000    0.00000000    0.00000000
     atom   14 type  1   force =     0.00000000    0.00000000    0.00000000
     atom   15 type  1   force =     0.00000000    0.00000000    0.00000000
     atom   16 type  1   force =     0.00000000    0.00000000    0.00000000
     atom   17 type  1   force =     0.00000000    0.00000000    0.00000000
     The Hubbard contrib.    to forces
     atom    1 type  2   force =     0.00000000    0.00000000    0.00000000
     atom    2 type  2   force =     0.00000000    0.00000000    0.00000000
     atom    3 type  2   force =     0.00000000    0.00000000    0.00000000
     atom    4 type  2   force =     0.00000000    0.00000000    0.00000000
     atom    5 type  2   force =     0.00000000    0.00000000    0.00000000
     atom    6 type  2   force =     0.00000000    0.00000000    0.00000000
     atom    7 type  2   force =     0.00000000    0.00000000    0.00000000
     atom    8 type  2   force =     0.00000000    0.00000000    0.00000000
     atom    9 type  2   force =     0.00000000    0.00000000    0.00000000
     atom   10 type  2   force =     0.00000000    0.00000000    0.00000000
     atom   11 type  2   force =     0.00000000    0.00000000    0.00000000
     atom   12 type  2   force =     0.00000000    0.00000000    0.00000000
     atom   13 type  1   force =     0.00000000    0.00000000    0.00000000
     atom   14 type  1   force =     0.00000000    0.00000000    0.00000000
     atom   15 type  1   force =     0.00000000    0.00000000    0.00000000
     atom   16 type  1   force =     0.00000000    0.00000000    0.00000000
     atom   17 type  1   force =     0.00000000    0.00000000    0.00000000
     The SCF correction term to forces
     atom    1 type  2   force =    -0.00000459    0.00001064    0.00000103
     atom    2 type  2   force =    -0.00000375    0.00001148    0.00000138
     atom    3 type  2   force =    -0.00000253   -0.00000706    0.00001021
     atom    4 type  2   force =    -0.00000385   -0.00000487   -0.00001073
     atom    5 type  2   force =    -0.00000353   -0.00000536    0.00001043
     atom    6 type  2   force =    -0.00000480   -0.00000431   -0.00001045
     atom    7 type  2   force =     0.00001061    0.00000048   -0.00000079
     atom    8 type  2   force =    -0.00000490   -0.00000537   -0.00000835
     atom    9 type  2   force =    -0.00000467    0.00000998    0.00000107
     atom   10 type  2   force =     0.00001137    0.00000062   -0.00000056
     atom   11 type  2   force =    -0.00000363   -0.00000725    0.00000827
     atom   12 type  2   force =     0.00001100    0.00000023   -0.00000103
     atom   13 type  1   force =    -0.00000009   -0.00000025   -0.00000025
     atom   14 type  1   force =    -0.00000021    0.00000006    0.00000016
     atom   15 type  1   force =     0.00000003    0.00000001    0.00000007
     atom   16 type  1   force =    -0.00000001   -0.00000010    0.00000002
     atom   17 type  1   force =     0.00000009    0.00000004    0.00000007

     Total force =     0.005672     Total SCF correction =     0.000041

     number of scf cycles    =   3
     number of bfgs steps    =   2

     energy   old            =     -53.4515442938 Ry
     energy   new            =     -53.4516260053 Ry

     CASE: energy  _new < energy  _old

     new trust radius        =       0.0048950316 bohr
     new conv_thr            =       0.0000000005 Ry


ATOMIC_POSITIONS (bohr)
H       12.937583673   8.835913238   9.569342854
H       19.160924710  10.876874852  12.924366249
H       18.936626414  15.157906595  10.984244831
H       19.241390296  14.706282570  15.657413106
H       12.809016728  19.204034668  11.624837584
H       13.138221493  18.879569486  16.306478461
H        9.170434182  17.587831997  14.132324002
H       13.464103891  12.264508679  19.537316690
H       13.479433633   8.350878143  16.924549466
H        9.546892441  10.904853325  17.313416843
H       12.735289091  13.051977527   7.489298099
H        9.063992073  11.475971428   9.974156287
Ge      11.953137080  11.544268492   9.831746658
Ge      12.431197470  11.040294134  17.127599166
Ge      13.639050427  13.445416735  13.533607641
Ge      12.056679710  17.628508168  13.932161886
Ge      18.118836692  13.556479961  13.251110177



     Writing output data file Ge5H12.save/
     Message from routine punch:
     wavefunctions written to file
     NEW-OLD atomic charge density approx. for the potential

     negative rho (up, down):  7.631E-04 0.000E+00

     total cpu time spent up to now is       77.2 secs

     Self-consistent Calculation

     iteration #  1     ecut=    30.00 Ry     beta= 0.70
     Davidson diagonalization with overlap
     ethr =  1.00E-06,  avg # of iterations =  3.0

     Threshold (ethr) on eigenvalues was too large:
     Diagonalizing with lowered threshold

     Davidson diagonalization with overlap
     ethr =  5.92E-08,  avg # of iterations =  1.0

     negative rho (up, down):  1.784E-04 0.000E+00

     total cpu time spent up to now is       84.7 secs

     total energy              =     -53.45169746 Ry
     Harris-Foulkes estimate   =     -53.45170626 Ry
     estimated scf accuracy    <       0.00001926 Ry

     iteration #  2     ecut=    30.00 Ry     beta= 0.70
     Davidson diagonalization with overlap
     ethr =  6.02E-08,  avg # of iterations =  2.0

     negative rho (up, down):  6.623E-05 0.000E+00

     total cpu time spent up to now is       87.9 secs

     total energy              =     -53.45170057 Ry
     Harris-Foulkes estimate   =     -53.45170272 Ry
     estimated scf accuracy    <       0.00000365 Ry

     iteration #  3     ecut=    30.00 Ry     beta= 0.70
     Davidson diagonalization with overlap
     ethr =  1.14E-08,  avg # of iterations =  2.0

     negative rho (up, down):  1.234E-05 0.000E+00

     total cpu time spent up to now is       91.1 secs

     total energy              =     -53.45170158 Ry
     Harris-Foulkes estimate   =     -53.45170184 Ry
     estimated scf accuracy    <       0.00000058 Ry

     iteration #  4     ecut=    30.00 Ry     beta= 0.70
     Davidson diagonalization with overlap
     ethr =  1.82E-09,  avg # of iterations =  2.0

     negative rho (up, down):  4.743E-08 0.000E+00

     total cpu time spent up to now is       94.3 secs

     total energy              =     -53.45170174 Ry
     Harris-Foulkes estimate   =     -53.45170172 Ry
     estimated scf accuracy    <       0.00000002 Ry

     iteration #  5     ecut=    30.00 Ry     beta= 0.70
     Davidson diagonalization with overlap
     ethr =  7.25E-11,  avg # of iterations =  3.0

     total cpu time spent up to now is       97.5 secs

     End of self-consistent calculation

          k = 0.0000 0.0000 0.0000 ( 37387 PWs)   bands (ev):

   -15.2190 -13.7407 -13.7394 -13.7383 -11.2722  -8.4800  -8.4786  -8.4775
    -8.1710  -8.1703  -7.9383  -7.9378  -7.9373  -6.4969  -6.4952  -6.4938
    -0.8573  -0.8238  -0.7060  -0.7029  -0.6990  -0.4151  -0.4148   0.3121
     0.3270   0.3475   0.4381   0.4675   0.4858   0.4995   0.6614   0.7381
     0.8720   0.8989   0.9071   0.9874   1.0840   1.1219   1.1892   1.1994
     1.2547   1.2816   1.3143   1.4357   1.4643   1.4939   1.5210   1.5513
     1.6436   1.6801   1.7708   1.8027   1.8640   1.8864   2.0074   2.0374
     2.0766   2.0792   2.2504   2.2667

     occupation numbers 
     1.0000   1.0000   1.0000   1.0000   1.0000   1.0000   1.0000   1.0000
     1.0000   1.0000   1.0000   1.0000   1.0000   1.0000   1.0000   1.0000
     0.0000   0.0000   0.0000   0.0000   0.0000   0.0000   0.0000   0.0000
     0.0000   0.0000   0.0000   0.0000   0.0000   0.0000   0.0000   0.0000
     0.0000   0.0000   0.0000   0.0000   0.0000   0.0000   0.0000   0.0000
     0.0000   0.0000   0.0000   0.0000   0.0000   0.0000   0.0000   0.0000
     0.0000   0.0000   0.0000   0.0000   0.0000   0.0000   0.0000   0.0000
     0.0000   0.0000   0.0000   0.0000

     the Fermi energy is    -2.0979 ev

!    total energy              =     -53.45170175 Ry
     Harris-Foulkes estimate   =     -53.45170175 Ry
     estimated scf accuracy    <          2.8E-10 Ry

     The total energy is the sum of the following terms:

     one-electron contribution =    -193.48415587 Ry
     hartree contribution      =      98.05295809 Ry
     xc contribution           =     -19.22882597 Ry
     ewald contribution        =      61.20832199 Ry
     smearing contrib. (-TS)   =      -0.00000000 Ry

     convergence has been achieved in   5 iterations

     Forces acting on atoms (cartesian axes, Ry/au):

     atom    1 type  2   force =    -0.00001385   -0.00025442   -0.00026436
     atom    2 type  2   force =     0.00034845   -0.00015373   -0.00001915
     atom    3 type  2   force =     0.00029891    0.00009158   -0.00018798
     atom    4 type  2   force =     0.00034007    0.00009610    0.00012939
     atom    5 type  2   force =    -0.00003800    0.00032278   -0.00016069
     atom    6 type  2   force =    -0.00004511    0.00030590    0.00019555
     atom    7 type  2   force =    -0.00026720    0.00023728    0.00005178
     atom    8 type  2   force =     0.00000773   -0.00009184    0.00038247
     atom    9 type  2   force =    -0.00002178   -0.00030857    0.00019094
     atom   10 type  2   force =    -0.00026539   -0.00013442    0.00025117
     atom   11 type  2   force =    -0.00004515   -0.00000682   -0.00037606
     atom   12 type  2   force =    -0.00029505   -0.00011272   -0.00017723
     atom   13 type  1   force =    -0.00050093   -0.00054775   -0.00108536
     atom   14 type  1   force =    -0.00035598   -0.00069498    0.00105006
     atom   15 type  1   force =    -0.00000430   -0.00000202   -0.00000668
     atom   16 type  1   force =    -0.00044618    0.00122201    0.00010726
     atom   17 type  1   force =     0.00130377    0.00003162   -0.00008113
     The non-local contrib.  to forces
     atom    1 type  2   force =     0.00000000    0.00000000    0.00000000
     atom    2 type  2   force =     0.00000000    0.00000000    0.00000000
     atom    3 type  2   force =     0.00000000    0.00000000    0.00000000
     atom    4 type  2   force =     0.00000000    0.00000000    0.00000000
     atom    5 type  2   force =     0.00000000    0.00000000    0.00000000
     atom    6 type  2   force =     0.00000000    0.00000000    0.00000000
     atom    7 type  2   force =     0.00000000    0.00000000    0.00000000
     atom    8 type  2   force =     0.00000000    0.00000000    0.00000000
     atom    9 type  2   force =     0.00000000    0.00000000    0.00000000
     atom   10 type  2   force =     0.00000000    0.00000000    0.00000000
     atom   11 type  2   force =     0.00000000    0.00000000    0.00000000
     atom   12 type  2   force =     0.00000000    0.00000000    0.00000000
     atom   13 type  1   force =    -0.00811383   -0.00919798   -0.01780296
     atom   14 type  1   force =    -0.00581173   -0.01159369    0.01732069
     atom   15 type  1   force =     0.00003927   -0.00011232    0.00007653
     atom   16 type  1   force =    -0.00759926    0.02014641    0.00196135
     atom   17 type  1   force =     0.02159082    0.00050008   -0.00134426
     The ionic contribution  to forces
     atom    1 type  2   force =     0.27175175   -1.41821017   -0.50176434
     atom    2 type  2   force =     0.92935751   -1.20150369   -0.17717997
     atom    3 type  2   force =     0.82748515    0.73804622   -1.05724572
     atom    4 type  2   force =     0.96421811    0.53495782    1.06068621
     atom    5 type  2   force =     0.17751462    1.13644274   -1.00508185
     atom    6 type  2   force =     0.32673911    0.99255558    1.11675752
     atom    7 type  2   force =    -1.46586266    0.41355055    0.13178705
     atom    8 type  2   force =     0.34400004    0.30496920    1.45098487
     atom    9 type  2   force =     0.35021270   -1.45975311    0.28031198
     atom   10 type  2   force =    -1.42804299   -0.30953804    0.45550180
     atom   11 type  2   force =     0.18015218    0.48763452   -1.43060492
     atom   12 type  2   force =    -1.47764739   -0.22751467   -0.31868242
     atom   13 type  1   force =    -0.97297970   -1.09406410   -2.13679395
     atom   14 type  1   force =    -0.69742529   -1.38869711    2.07373863
     atom   15 type  1   force =     0.00381423    0.01003241   -0.00454641
     atom   16 type  1   force =    -0.91294167    2.40997757    0.22827483
     atom   17 type  1   force =     2.57965430    0.07111429   -0.16614331
     The local contribution  to forces
     atom    1 type  2   force =    -0.27176045    1.41794235    0.50149812
     atom    2 type  2   force =    -0.92900406    1.20133554    0.17715911
     atom    3 type  2   force =    -0.82718281   -0.73794579    1.05704485
     atom    4 type  2   force =    -0.96387287   -0.53485560   -1.06054331
     atom    5 type  2   force =    -0.17754858   -1.13611296    1.00490808
     atom    6 type  2   force =    -0.32677874   -0.99224391   -1.11654867
     atom    7 type  2   force =     1.46558174   -0.41331345   -0.13173414
     atom    8 type  2   force =    -0.34398666   -0.30505471   -1.45059146
     atom    9 type  2   force =    -0.35022917    1.45943175   -0.28012196
     atom   10 type  2   force =     1.42776296    0.30940262   -0.45524945
     atom   11 type  2   force =    -0.18019335   -0.48763265    1.43021816
     atom   12 type  2   force =     1.47733820    0.22740133    0.31850600
     atom   13 type  1   force =     0.98059292    1.10271534    2.15351346
     atom   14 type  1   force =     0.70288105    1.39959692   -2.09001109
     atom   15 type  1   force =    -0.00385838   -0.00992196    0.00446314
     atom   16 type  1   force =     0.92009525   -2.42890390   -0.23012906
     atom   17 type  1   force =    -2.59994380   -0.07158292    0.16740662
     The core correction contribution to forces
     atom    1 type  2   force =     0.00000000    0.00000000    0.00000000
     atom    2 type  2   force =     0.00000000    0.00000000    0.00000000
     atom    3 type  2   force =     0.00000000    0.00000000    0.00000000
     atom    4 type  2   force =     0.00000000    0.00000000    0.00000000
     atom    5 type  2   force =     0.00000000    0.00000000    0.00000000
     atom    6 type  2   force =     0.00000000    0.00000000    0.00000000
     atom    7 type  2   force =     0.00000000    0.00000000    0.00000000
     atom    8 type  2   force =     0.00000000    0.00000000    0.00000000
     atom    9 type  2   force =     0.00000000    0.00000000    0.00000000
     atom   10 type  2   force =     0.00000000    0.00000000    0.00000000
     atom   11 type  2   force =     0.00000000    0.00000000    0.00000000
     atom   12 type  2   force =     0.00000000    0.00000000    0.00000000
     atom   13 type  1   force =     0.00000000    0.00000000    0.00000000
     atom   14 type  1   force =     0.00000000    0.00000000    0.00000000
     atom   15 type  1   force =     0.00000000    0.00000000    0.00000000
     atom   16 type  1   force =     0.00000000    0.00000000    0.00000000
     atom   17 type  1   force =     0.00000000    0.00000000    0.00000000
     The Hubbard contrib.    to forces
     atom    1 type  2   force =     0.00000000    0.00000000    0.00000000
     atom    2 type  2   force =     0.00000000    0.00000000    0.00000000
     atom    3 type  2   force =     0.00000000    0.00000000    0.00000000
     atom    4 type  2   force =     0.00000000    0.00000000    0.00000000
     atom    5 type  2   force =     0.00000000    0.00000000    0.00000000
     atom    6 type  2   force =     0.00000000    0.00000000    0.00000000
     atom    7 type  2   force =     0.00000000    0.00000000    0.00000000
     atom    8 type  2   force =     0.00000000    0.00000000    0.00000000
     atom    9 type  2   force =     0.00000000    0.00000000    0.00000000
     atom   10 type  2   force =     0.00000000    0.00000000    0.00000000
     atom   11 type  2   force =     0.00000000    0.00000000    0.00000000
     atom   12 type  2   force =     0.00000000    0.00000000    0.00000000
     atom   13 type  1   force =     0.00000000    0.00000000    0.00000000
     atom   14 type  1   force =     0.00000000    0.00000000    0.00000000
     atom   15 type  1   force =     0.00000000    0.00000000    0.00000000
     atom   16 type  1   force =     0.00000000    0.00000000    0.00000000
     atom   17 type  1   force =     0.00000000    0.00000000    0.00000000
     The SCF correction term to forces
     atom    1 type  2   force =    -0.00000543    0.00001335    0.00000188
     atom    2 type  2   force =    -0.00000528    0.00001437    0.00000173
     atom    3 type  2   force =    -0.00000370   -0.00000890    0.00001291
     atom    4 type  2   force =    -0.00000544   -0.00000617   -0.00001349
     atom    5 type  2   force =    -0.00000432   -0.00000704    0.00001309
     atom    6 type  2   force =    -0.00000576   -0.00000581   -0.00001327
     atom    7 type  2   force =     0.00001344    0.00000015   -0.00000111
     atom    8 type  2   force =    -0.00000593   -0.00000638   -0.00001093
     atom    9 type  2   force =    -0.00000559    0.00001275    0.00000094
     atom   10 type  2   force =     0.00001436    0.00000095   -0.00000115
     atom   11 type  2   force =    -0.00000425   -0.00000874    0.00001072
     atom   12 type  2   force =     0.00001387    0.00000058   -0.00000079
     atom   13 type  1   force =    -0.00000060   -0.00000105   -0.00000189
     atom   14 type  1   force =    -0.00000029   -0.00000114    0.00000185
     atom   15 type  1   force =     0.00000032   -0.00000018    0.00000009
     atom   16 type  1   force =    -0.00000077    0.00000189    0.00000016
     atom   17 type  1   force =     0.00000217    0.00000012   -0.00000016

     Total force =     0.002918     Total SCF correction =     0.000051

     number of scf cycles    =   4
     number of bfgs steps    =   3

     energy   old            =     -53.4516260053 Ry
     energy   new            =     -53.4517017539 Ry

     CASE: energy  _new < energy  _old

     new trust radius        =       0.0041779459 bohr
     new conv_thr            =       0.0000000005 Ry


ATOMIC_POSITIONS (bohr)
H       12.938459400   8.833240086   9.568680862
H       19.162359713  10.874370631  12.924086177
H       18.937738072  15.159382302  10.981986346
H       19.242857399  14.707426772  15.659657573
H       12.809616576  19.205816705  11.622554276
H       13.139038553  18.881046476  16.308838451
H        9.167602511  17.588135480  14.132603334
H       13.465017043  12.265371993  19.539961304
H       13.480274667   8.348131686  16.924648903
H        9.544024538  10.904561798  17.313987629
H       12.735918949  13.053280251   7.486706954
H        9.061031286  11.475753941   9.974077162
Ge      11.951538182  11.542539586   9.828295623
Ge      12.430061680  11.038097164  17.130926369
Ge      13.639044475  13.445429385  13.533612284
Ge      12.055257403  17.632393792  13.932498652
Ge      18.122969555  13.556591953  13.250848101



     Writing output data file Ge5H12.save/
     Message from routine punch:
     wavefunctions written to file
     NEW-OLD atomic charge density approx. for the potential

     negative rho (up, down):  4.361E-04 0.000E+00

     total cpu time spent up to now is       98.6 secs

     Self-consistent Calculation

     iteration #  1     ecut=    30.00 Ry     beta= 0.70
     Davidson diagonalization with overlap
     ethr =  1.00E-06,  avg # of iterations =  2.0

     Threshold (ethr) on eigenvalues was too large:
     Diagonalizing with lowered threshold

     Davidson diagonalization with overlap
     ethr =  2.66E-08,  avg # of iterations =  2.0

     negative rho (up, down):  9.496E-05 0.000E+00

     total cpu time spent up to now is      105.5 secs

     total energy              =     -53.45171898 Ry
     Harris-Foulkes estimate   =     -53.45172309 Ry
     estimated scf accuracy    <       0.00000897 Ry

     iteration #  2     ecut=    30.00 Ry     beta= 0.70
     Davidson diagonalization with overlap
     ethr =  2.80E-08,  avg # of iterations =  2.0

     negative rho (up, down):  3.557E-05 0.000E+00

     total cpu time spent up to now is      108.6 secs

     total energy              =     -53.45172031 Ry
     Harris-Foulkes estimate   =     -53.45172176 Ry
     estimated scf accuracy    <       0.00000242 Ry

     iteration #  3     ecut=    30.00 Ry     beta= 0.70
     Davidson diagonalization with overlap
     ethr =  7.57E-09,  avg # of iterations =  2.0

     negative rho (up, down):  3.303E-06 0.000E+00

     total cpu time spent up to now is      111.7 secs

     total energy              =     -53.45172100 Ry
     Harris-Foulkes estimate   =     -53.45172113 Ry
     estimated scf accuracy    <       0.00000031 Ry

     iteration #  4     ecut=    30.00 Ry     beta= 0.70
     Davidson diagonalization with overlap
     ethr =  9.79E-10,  avg # of iterations =  2.0

     total cpu time spent up to now is      114.7 secs

     total energy              =     -53.45172109 Ry
     Harris-Foulkes estimate   =     -53.45172107 Ry
     estimated scf accuracy    <          8.0E-09 Ry

     iteration #  5     ecut=    30.00 Ry     beta= 0.70
     Davidson diagonalization with overlap
     ethr =  2.49E-11,  avg # of iterations =  3.0

     total cpu time spent up to now is      117.9 secs

     End of self-consistent calculation

          k = 0.0000 0.0000 0.0000 ( 37387 PWs)   bands (ev):

   -15.2066 -13.7356 -13.7343 -13.7332 -11.2666  -8.4769  -8.4756  -8.4746
    -8.1700  -8.1695  -7.9384  -7.9380  -7.9375  -6.4888  -6.4871  -6.4858
    -0.8634  -0.8280  -0.7070  -0.7038  -0.6999  -0.4132  -0.4128   0.3097
     0.3246   0.3452   0.4365   0.4657   0.4840   0.4977   0.6612   0.7378
     0.8698   0.8967   0.9069   0.9841   1.0827   1.1206   1.1876   1.1978
     1.2543   1.2813   1.3137   1.4316   1.4610   1.4916   1.5195   1.5480
     1.6408   1.6773   1.7696   1.8018   1.8624   1.8849   2.0054   2.0358
     2.0753   2.0781   2.2499   2.2656

     occupation numbers 
     1.0000   1.0000   1.0000   1.0000   1.0000   1.0000   1.0000   1.0000
     1.0000   1.0000   1.0000   1.0000   1.0000   1.0000   1.0000   1.0000
     0.0000   0.0000   0.0000   0.0000   0.0000   0.0000   0.0000   0.0000
     0.0000   0.0000   0.0000   0.0000   0.0000   0.0000   0.0000   0.0000
     0.0000   0.0000   0.0000   0.0000   0.0000   0.0000   0.0000   0.0000
     0.0000   0.0000   0.0000   0.0000   0.0000   0.0000   0.0000   0.0000
     0.0000   0.0000   0.0000   0.0000   0.0000   0.0000   0.0000   0.0000
     0.0000   0.0000   0.0000   0.0000

     the Fermi energy is    -2.0956 ev

!    total energy              =     -53.45172110 Ry
     Harris-Foulkes estimate   =     -53.45172109 Ry
     estimated scf accuracy    <          1.4E-10 Ry

     The total energy is the sum of the following terms:

     one-electron contribution =    -193.30682691 Ry
     hartree contribution      =      97.96530465 Ry
     xc contribution           =     -19.22279014 Ry
     ewald contribution        =      61.11259130 Ry
     smearing contrib. (-TS)   =      -0.00000000 Ry

     convergence has been achieved in   5 iterations

     Forces acting on atoms (cartesian axes, Ry/au):

     atom    1 type  2   force =    -0.00026476    0.00018521   -0.00034704
     atom    2 type  2   force =     0.00031427    0.00034806    0.00003087
     atom    3 type  2   force =     0.00030793   -0.00020284    0.00022869
     atom    4 type  2   force =     0.00029128   -0.00011267   -0.00033199
     atom    5 type  2   force =    -0.00023633    0.00018100    0.00029366
     atom    6 type  2   force =    -0.00029857    0.00022816   -0.00023893
     atom    7 type  2   force =     0.00021265    0.00039652    0.00002396
     atom    8 type  2   force =    -0.00022869   -0.00040415    0.00006032
     atom    9 type  2   force =    -0.00026144    0.00010540    0.00035721
     atom   10 type  2   force =     0.00023122   -0.00019583    0.00034492
     atom   11 type  2   force =    -0.00026055   -0.00035868   -0.00006366
     atom   12 type  2   force =     0.00019611   -0.00016983   -0.00034340
     atom   13 type  1   force =    -0.00025235   -0.00027108   -0.00054685
     atom   14 type  1   force =    -0.00018125   -0.00034831    0.00053136
     atom   15 type  1   force =    -0.00000435   -0.00000770   -0.00000976
     atom   16 type  1   force =    -0.00022044    0.00061148    0.00005192
     atom   17 type  1   force =     0.00065527    0.00001527   -0.00004129
     The non-local contrib.  to forces
     atom    1 type  2   force =     0.00000000    0.00000000    0.00000000
     atom    2 type  2   force =     0.00000000    0.00000000    0.00000000
     atom    3 type  2   force =     0.00000000    0.00000000    0.00000000
     atom    4 type  2   force =     0.00000000    0.00000000    0.00000000
     atom    5 type  2   force =     0.00000000    0.00000000    0.00000000
     atom    6 type  2   force =     0.00000000    0.00000000    0.00000000
     atom    7 type  2   force =     0.00000000    0.00000000    0.00000000
     atom    8 type  2   force =     0.00000000    0.00000000    0.00000000
     atom    9 type  2   force =     0.00000000    0.00000000    0.00000000
     atom   10 type  2   force =     0.00000000    0.00000000    0.00000000
     atom   11 type  2   force =     0.00000000    0.00000000    0.00000000
     atom   12 type  2   force =     0.00000000    0.00000000    0.00000000
     atom   13 type  1   force =    -0.00806771   -0.00915011   -0.01770854
     atom   14 type  1   force =    -0.00578072   -0.01153548    0.01723210
     atom   15 type  1   force =     0.00004034   -0.00011201    0.00007767
     atom   16 type  1   force =    -0.00756245    0.02003626    0.00195361
     atom   17 type  1   force =     0.02147921    0.00049715   -0.00133809
     The ionic contribution  to forces
     atom    1 type  2   force =     0.27210743   -1.41652393   -0.50028194
     atom    2 type  2   force =     0.92730368   -1.20063392   -0.17693581
     atom    3 type  2   force =     0.82547515    0.73743196   -1.05639785
     atom    4 type  2   force =     0.96212129    0.53454224    1.05997033
     atom    5 type  2   force =     0.17785860    1.13426623   -1.00448132
     atom    6 type  2   force =     0.32694183    0.99049930    1.11583928
     atom    7 type  2   force =    -1.46427513    0.41196063    0.13159922
     atom    8 type  2   force =     0.34414142    0.30543454    1.44877934
     atom    9 type  2   force =     0.35031062   -1.45791858    0.27899073
     atom   10 type  2   force =    -1.42659048   -0.30855572    0.45408795
     atom   11 type  2   force =     0.18054769    0.48784225   -1.42835526
     atom   12 type  2   force =    -1.47599119   -0.22677242   -0.31726698
     atom   13 type  1   force =    -0.97224092   -1.09314044   -2.13499049
     atom   14 type  1   force =    -0.69685424   -1.38749402    2.07194593
     atom   15 type  1   force =     0.00381871    0.00997961   -0.00454369
     atom   16 type  1   force =    -0.91210708    2.40802110    0.22803388
     atom   17 type  1   force =     2.57743264    0.07106118   -0.16599333
     The local contribution  to forces
     atom    1 type  2   force =    -0.27236996    1.41670277    0.49993357
     atom    2 type  2   force =    -0.92698655    1.20097534    0.17696591
     atom    3 type  2   force =    -0.82516519   -0.73763079    1.05662056
     atom    4 type  2   force =    -0.96182714   -0.53465203   -1.06029616
     atom    5 type  2   force =    -0.17809330   -1.13408178    1.00476901
     atom    6 type  2   force =    -0.32723811   -0.99026823   -1.11607206
     atom    7 type  2   force =     1.46448150   -0.41156377   -0.13157469
     atom    8 type  2   force =    -0.34436749   -0.30583613   -1.44871358
     atom    9 type  2   force =    -0.35056974    1.45801784   -0.27863362
     atom   10 type  2   force =     1.42681474    0.30835918   -0.45374204
     atom   11 type  2   force =    -0.18080663   -0.48819712    1.42828629
     atom   12 type  2   force =     1.47618051    0.22660207    0.31692359
     atom   13 type  1   force =     0.98005706    1.10202053    2.15215444
     atom   14 type  1   force =     0.70245448    1.39868273   -2.08864929
     atom   15 type  1   force =    -0.00386371   -0.00987570    0.00445656
     atom   16 type  1   force =     0.91944996   -2.42744824   -0.22993580
     atom   17 type  1   force =    -2.59825916   -0.07154320    0.16729037
     The core correction contribution to forces
     atom    1 type  2   force =     0.00000000    0.00000000    0.00000000
     atom    2 type  2   force =     0.00000000    0.00000000    0.00000000
     atom    3 type  2   force =     0.00000000    0.00000000    0.00000000
     atom    4 type  2   force =     0.00000000    0.00000000    0.00000000
     atom    5 type  2   force =     0.00000000    0.00000000    0.00000000
     atom    6 type  2   force =     0.00000000    0.00000000    0.00000000
     atom    7 type  2   force =     0.00000000    0.00000000    0.00000000
     atom    8 type  2   force =     0.00000000    0.00000000    0.00000000
     atom    9 type  2   force =     0.00000000    0.00000000    0.00000000
     atom   10 type  2   force =     0.00000000    0.00000000    0.00000000
     atom   11 type  2   force =     0.00000000    0.00000000    0.00000000
     atom   12 type  2   force =     0.00000000    0.00000000    0.00000000
     atom   13 type  1   force =     0.00000000    0.00000000    0.00000000
     atom   14 type  1   force =     0.00000000    0.00000000    0.00000000
     atom   15 type  1   force =     0.00000000    0.00000000    0.00000000
     atom   16 type  1   force =     0.00000000    0.00000000    0.00000000
     atom   17 type  1   force =     0.00000000    0.00000000    0.00000000
     The Hubbard contrib.    to forces
     atom    1 type  2   force =     0.00000000    0.00000000    0.00000000
     atom    2 type  2   force =     0.00000000    0.00000000    0.00000000
     atom    3 type  2   force =     0.00000000    0.00000000    0.00000000
     atom    4 type  2   force =     0.00000000    0.00000000    0.00000000
     atom    5 type  2   force =     0.00000000    0.00000000    0.00000000
     atom    6 type  2   force =     0.00000000    0.00000000    0.00000000
     atom    7 type  2   force =     0.00000000    0.00000000    0.00000000
     atom    8 type  2   force =     0.00000000    0.00000000    0.00000000
     atom    9 type  2   force =     0.00000000    0.00000000    0.00000000
     atom   10 type  2   force =     0.00000000    0.00000000    0.00000000
     atom   11 type  2   force =     0.00000000    0.00000000    0.00000000
     atom   12 type  2   force =     0.00000000    0.00000000    0.00000000
     atom   13 type  1   force =     0.00000000    0.00000000    0.00000000
     atom   14 type  1   force =     0.00000000    0.00000000    0.00000000
     atom   15 type  1   force =     0.00000000    0.00000000    0.00000000
     atom   16 type  1   force =     0.00000000    0.00000000    0.00000000
     atom   17 type  1   force =     0.00000000    0.00000000    0.00000000
     The SCF correction term to forces
     atom    1 type  2   force =    -0.00000234    0.00000635    0.00000133
     atom    2 type  2   force =    -0.00000296    0.00000663    0.00000076
     atom    3 type  2   force =    -0.00000215   -0.00000402    0.00000598
     atom    4 type  2   force =    -0.00000299   -0.00000289   -0.00000617
     atom    5 type  2   force =    -0.00000173   -0.00000346    0.00000597
     atom    6 type  2   force =    -0.00000239   -0.00000292   -0.00000615
     atom    7 type  2   force =     0.00000618   -0.00000035   -0.00000057
     atom    8 type  2   force =    -0.00000272   -0.00000257   -0.00000545
     atom    9 type  2   force =    -0.00000242    0.00000612    0.00000010
     atom   10 type  2   force =     0.00000685    0.00000070   -0.00000099
     atom   11 type  2   force =    -0.00000172   -0.00000382    0.00000531
     atom   12 type  2   force =     0.00000669    0.00000051   -0.00000001
     atom   13 type  1   force =    -0.00000089   -0.00000107   -0.00000226
     atom   14 type  1   force =    -0.00000088   -0.00000155    0.00000262
     atom   15 type  1   force =     0.00000021    0.00000038   -0.00000030
     atom   16 type  1   force =    -0.00000097    0.00000234    0.00000023
     atom   17 type  1   force =     0.00000248    0.00000013   -0.00000025

     Total force =     0.002042     Total SCF correction =     0.000025

     bfgs converged in   5 scf cycles and   4 bfgs steps
     (criteria: energy <  1.0E-04 Ry, force <  1.0E-03 Ry/Bohr)

     End of BFGS Geometry Optimization

     Final energy   =     -53.4517210952 Ry
Begin final coordinates

ATOMIC_POSITIONS (bohr)
H       12.938459400   8.833240086   9.568680862
H       19.162359713  10.874370631  12.924086177
H       18.937738072  15.159382302  10.981986346
H       19.242857399  14.707426772  15.659657573
H       12.809616576  19.205816705  11.622554276
H       13.139038553  18.881046476  16.308838451
H        9.167602511  17.588135480  14.132603334
H       13.465017043  12.265371993  19.539961304
H       13.480274667   8.348131686  16.924648903
H        9.544024538  10.904561798  17.313987629
H       12.735918949  13.053280251   7.486706954
H        9.061031286  11.475753941   9.974077162
Ge      11.951538182  11.542539586   9.828295623
Ge      12.430061680  11.038097164  17.130926369
Ge      13.639044475  13.445429385  13.533612284
Ge      12.055257403  17.632393792  13.932498652
Ge      18.122969555  13.556591953  13.250848101
End final coordinates



     Writing output data file Ge5H12.save/

     init_run     :      1.60s CPU      1.83s WALL (       1 calls)
     electrons    :    112.28s CPU    111.67s WALL (       5 calls)
     update_pot   :      1.20s CPU      1.27s WALL (       4 calls)
     forces       :      3.17s CPU      3.25s WALL (       5 calls)

     Called by init_run:
     wfcinit      :      1.15s CPU      1.29s WALL (       1 calls)
     wfcinit:atom :      0.02s CPU      0.05s WALL (       1 calls)
     wfcinit:wfcr :      1.07s CPU      1.16s WALL (       1 calls)
     potinit      :      0.14s CPU      0.16s WALL (       1 calls)
     hinit0       :      0.20s CPU      0.25s WALL (       1 calls)

     Called by electrons:
     c_bands      :     90.76s CPU     89.00s WALL (      32 calls)
     sum_band     :     17.34s CPU     17.57s WALL (      32 calls)
     v_of_rho     :      2.82s CPU      3.01s WALL (      33 calls)
     v_h          :      0.98s CPU      1.15s WALL (      33 calls)
     v_xc         :      1.84s CPU      1.86s WALL (      33 calls)
     mix_rho      :      1.45s CPU      2.09s WALL (      32 calls)

     Called by c_bands:
     init_us_2    :      0.47s CPU      0.48s WALL (      65 calls)
     regterg      :     90.33s CPU     88.55s WALL (      32 calls)

     Called by sum_band:

     Called by *egterg:
     h_psi        :     76.68s CPU     77.36s WALL (     112 calls)
     g_psi        :      0.37s CPU      0.38s WALL (      79 calls)
     rdiaghg      :      0.44s CPU      0.48s WALL (     103 calls)
     regterg:over :      3.84s CPU      3.21s WALL (      79 calls)
     regterg:upda :      4.53s CPU      1.54s WALL (      79 calls)
     regterg:last :      2.24s CPU      0.71s WALL (      33 calls)

     Called by h_psi:
     h_psi:pot    :     76.28s CPU     76.93s WALL (     112 calls)
     h_psi:calbec :      0.74s CPU      0.77s WALL (     112 calls)
     vloc_psi     :     74.58s CPU     75.86s WALL (     112 calls)
     add_vuspsi   :      0.96s CPU      0.30s WALL (     112 calls)

     General routines
     calbec       :      0.94s CPU      0.97s WALL (     132 calls)
     fft          :      2.38s CPU      2.43s WALL (     112 calls)
     ffts         :      0.70s CPU      0.71s WALL (      32 calls)
     fftw         :     80.50s CPU     81.80s WALL (    5664 calls)
     davcio       :      0.00s CPU      0.06s WALL (       4 calls)


     PWSCF        :   1m58.52s CPU   1m58.60s WALL


   This run was terminated on:  11: 6:33  30Apr2021            

=------------------------------------------------------------------------------=
   JOB DONE.
=------------------------------------------------------------------------------=
