
     Program PWSCF v.6.4.1 starts on 28Apr2021 at 14:35:23 

     This program is part of the open-source Quantum ESPRESSO suite
     for quantum simulation of materials; please cite
         "P. Giannozzi et al., J. Phys.:Condens. Matter 21 395502 (2009);
         "P. Giannozzi et al., J. Phys.:Condens. Matter 29 465901 (2017);
          URL http://www.quantum-espresso.org", 
     in publications or presentations arising from this work. More details at
     http://www.quantum-espresso.org/quote

     Serial version
     Waiting for input...
     Reading input from standard input
     Message from routine read_cards :
     DEPRECATED: no units specified in ATOMIC_POSITIONS card
     Message from routine read_cards :
     ATOMIC_POSITIONS: units set to alat

     Current dimensions of program PWSCF are:
     Max number of different atomic species (ntypx) = 10
     Max number of k-points (npk) =  40000
     Max angular momentum in pseudopotentials (lmaxx) =  3

     Atomic positions and unit cell read from directory:
     ./tmp/Si_bulk.save/


     G-vector sticks info
     --------------------
     sticks:   dense  smooth     PW     G-vecs:    dense   smooth      PW
     Sum         499     499    163                 7391     7391    1459



     bravais-lattice index     =            2
     lattice parameter (alat)  =      10.2000  a.u.
     unit-cell volume          =     265.3020 (a.u.)^3
     number of atoms/cell      =            2
     number of atomic types    =            1
     number of electrons       =         8.00
     number of Kohn-Sham states=           30
     kinetic-energy cutoff     =      35.0000  Ry
     charge density cutoff     =     140.0000  Ry
     Exchange-correlation      =  SLA  PW   PBE  PBE ( 1  4  3  4 0 0)

     celldm(1)=  10.200000  celldm(2)=   0.000000  celldm(3)=   0.000000
     celldm(4)=   0.000000  celldm(5)=   0.000000  celldm(6)=   0.000000

     crystal axes: (cart. coord. in units of alat)
               a(1) = (  -0.500000   0.000000   0.500000 )  
               a(2) = (   0.000000   0.500000   0.500000 )  
               a(3) = (  -0.500000   0.500000   0.000000 )  

     reciprocal axes: (cart. coord. in units 2 pi/alat)
               b(1) = ( -1.000000 -1.000000  1.000000 )  
               b(2) = (  1.000000  1.000000  1.000000 )  
               b(3) = ( -1.000000  1.000000 -1.000000 )  


     PseudoPot. # 1 for Si read from file:
     /Users/simonebrozzesi/Uni/qe-6.4.1/pseudo/Si.pbe-rrkj.UPF
     MD5 check sum: cf7ab5690cd9a85b22c4813f7e365554
     Pseudo is Norm-conserving, Zval =  4.0
     Generated by new atomic code, or converted to UPF format
     Using radial grid of  883 points,  3 beta functions with: 
                l(1) =   0
                l(2) =   0
                l(3) =   1

     atomic species   valence    mass     pseudopotential
        Si             4.00    28.08550     Si( 1.00)

     48 Sym. Ops., with inversion, found (24 have fractional translation)


                                    s                        frac. trans.

      isym =  1     identity                                     

 cryst.   s( 1) = (     1          0          0      )
                  (     0          1          0      )
                  (     0          0          1      )

 cart.    s( 1) = (  1.0000000  0.0000000  0.0000000 )
                  (  0.0000000  1.0000000  0.0000000 )
                  (  0.0000000  0.0000000  1.0000000 )


      isym =  2     180 deg rotation - cart. axis [0,0,1]        

 cryst.   s( 2) = (     0          1         -1      )
                  (     1          0         -1      )
                  (     0          0         -1      )

 cart.    s( 2) = ( -1.0000000  0.0000000  0.0000000 )
                  (  0.0000000 -1.0000000  0.0000000 )
                  (  0.0000000  0.0000000  1.0000000 )


      isym =  3     180 deg rotation - cart. axis [0,1,0]        

 cryst.   s( 3) = (    -1          0          0      )
                  (    -1          0          1      )
                  (    -1          1          0      )

 cart.    s( 3) = ( -1.0000000  0.0000000  0.0000000 )
                  (  0.0000000  1.0000000  0.0000000 )
                  (  0.0000000  0.0000000 -1.0000000 )


      isym =  4     180 deg rotation - cart. axis [1,0,0]        

 cryst.   s( 4) = (     0         -1          1      )
                  (     0         -1          0      )
                  (     1         -1          0      )

 cart.    s( 4) = (  1.0000000  0.0000000  0.0000000 )
                  (  0.0000000 -1.0000000  0.0000000 )
                  (  0.0000000  0.0000000 -1.0000000 )


      isym =  5     180 deg rotation - cart. axis [1,1,0]        

 cryst.   s( 5) = (     0         -1          0      )    f =(  0.2500000 )
                  (    -1          0          0      )       (  0.2500000 )
                  (     0          0         -1      )       (  0.2500000 )

 cart.    s( 5) = (  0.0000000  1.0000000  0.0000000 )    f =( -0.2500000 )
                  (  1.0000000  0.0000000  0.0000000 )       (  0.2500000 )
                  (  0.0000000  0.0000000 -1.0000000 )       (  0.2500000 )


      isym =  6     180 deg rotation - cart. axis [1,-1,0]       

 cryst.   s( 6) = (    -1          0          1      )    f =(  0.2500000 )
                  (     0         -1          1      )       (  0.2500000 )
                  (     0          0          1      )       (  0.2500000 )

 cart.    s( 6) = (  0.0000000 -1.0000000  0.0000000 )    f =( -0.2500000 )
                  ( -1.0000000  0.0000000  0.0000000 )       (  0.2500000 )
                  (  0.0000000  0.0000000 -1.0000000 )       (  0.2500000 )


      isym =  7      90 deg rotation - cart. axis [0,0,-1]       

 cryst.   s( 7) = (     0          1          0      )    f =(  0.2500000 )
                  (     0          1         -1      )       (  0.2500000 )
                  (    -1          1          0      )       (  0.2500000 )

 cart.    s( 7) = (  0.0000000  1.0000000  0.0000000 )    f =( -0.2500000 )
                  ( -1.0000000  0.0000000  0.0000000 )       (  0.2500000 )
                  (  0.0000000  0.0000000  1.0000000 )       (  0.2500000 )


      isym =  8      90 deg rotation - cart. axis [0,0,1]        

 cryst.   s( 8) = (     1          0         -1      )    f =(  0.2500000 )
                  (     1          0          0      )       (  0.2500000 )
                  (     1         -1          0      )       (  0.2500000 )

 cart.    s( 8) = (  0.0000000 -1.0000000  0.0000000 )    f =( -0.2500000 )
                  (  1.0000000  0.0000000  0.0000000 )       (  0.2500000 )
                  (  0.0000000  0.0000000  1.0000000 )       (  0.2500000 )


      isym =  9     180 deg rotation - cart. axis [1,0,1]        

 cryst.   s( 9) = (    -1          0          0      )    f =(  0.2500000 )
                  (     0          0         -1      )       (  0.2500000 )
                  (     0         -1          0      )       (  0.2500000 )

 cart.    s( 9) = (  0.0000000  0.0000000  1.0000000 )    f =( -0.2500000 )
                  (  0.0000000 -1.0000000  0.0000000 )       (  0.2500000 )
                  (  1.0000000  0.0000000  0.0000000 )       (  0.2500000 )


      isym = 10     180 deg rotation - cart. axis [-1,0,1]       

 cryst.   s(10) = (     1          0          0      )    f =(  0.2500000 )
                  (     1         -1          0      )       (  0.2500000 )
                  (     1          0         -1      )       (  0.2500000 )

 cart.    s(10) = (  0.0000000  0.0000000 -1.0000000 )    f =( -0.2500000 )
                  (  0.0000000 -1.0000000  0.0000000 )       (  0.2500000 )
                  ( -1.0000000  0.0000000  0.0000000 )       (  0.2500000 )


      isym = 11      90 deg rotation - cart. axis [0,1,0]        

 cryst.   s(11) = (     0          1         -1      )    f =(  0.2500000 )
                  (    -1          1          0      )       (  0.2500000 )
                  (     0          1          0      )       (  0.2500000 )

 cart.    s(11) = (  0.0000000  0.0000000  1.0000000 )    f =( -0.2500000 )
                  (  0.0000000  1.0000000  0.0000000 )       (  0.2500000 )
                  ( -1.0000000  0.0000000  0.0000000 )       (  0.2500000 )


      isym = 12      90 deg rotation - cart. axis [0,-1,0]       

 cryst.   s(12) = (     0         -1          1      )    f =(  0.2500000 )
                  (     0          0          1      )       (  0.2500000 )
                  (    -1          0          1      )       (  0.2500000 )

 cart.    s(12) = (  0.0000000  0.0000000 -1.0000000 )    f =( -0.2500000 )
                  (  0.0000000  1.0000000  0.0000000 )       (  0.2500000 )
                  (  1.0000000  0.0000000  0.0000000 )       (  0.2500000 )


      isym = 13     180 deg rotation - cart. axis [0,1,1]        

 cryst.   s(13) = (    -1          1          0      )    f =(  0.2500000 )
                  (     0          1          0      )       (  0.2500000 )
                  (     0          1         -1      )       (  0.2500000 )

 cart.    s(13) = ( -1.0000000  0.0000000  0.0000000 )    f =( -0.2500000 )
                  (  0.0000000  0.0000000  1.0000000 )       (  0.2500000 )
                  (  0.0000000  1.0000000  0.0000000 )       (  0.2500000 )


      isym = 14     180 deg rotation - cart. axis [0,1,-1]       

 cryst.   s(14) = (     0          0         -1      )    f =(  0.2500000 )
                  (     0         -1          0      )       (  0.2500000 )
                  (    -1          0          0      )       (  0.2500000 )

 cart.    s(14) = ( -1.0000000  0.0000000  0.0000000 )    f =( -0.2500000 )
                  (  0.0000000  0.0000000 -1.0000000 )       (  0.2500000 )
                  (  0.0000000 -1.0000000  0.0000000 )       (  0.2500000 )


      isym = 15      90 deg rotation - cart. axis [-1,0,0]       

 cryst.   s(15) = (     0          0          1      )    f =(  0.2500000 )
                  (    -1          0          1      )       (  0.2500000 )
                  (     0         -1          1      )       (  0.2500000 )

 cart.    s(15) = (  1.0000000  0.0000000  0.0000000 )    f =( -0.2500000 )
                  (  0.0000000  0.0000000  1.0000000 )       (  0.2500000 )
                  (  0.0000000 -1.0000000  0.0000000 )       (  0.2500000 )


      isym = 16      90 deg rotation - cart. axis [1,0,0]        

 cryst.   s(16) = (     1         -1          0      )    f =(  0.2500000 )
                  (     1          0         -1      )       (  0.2500000 )
                  (     1          0          0      )       (  0.2500000 )

 cart.    s(16) = (  1.0000000  0.0000000  0.0000000 )    f =( -0.2500000 )
                  (  0.0000000  0.0000000 -1.0000000 )       (  0.2500000 )
                  (  0.0000000  1.0000000  0.0000000 )       (  0.2500000 )


      isym = 17     120 deg rotation - cart. axis [-1,-1,-1]     

 cryst.   s(17) = (    -1          0          1      )
                  (    -1          1          0      )
                  (    -1          0          0      )

 cart.    s(17) = (  0.0000000  1.0000000  0.0000000 )
                  (  0.0000000  0.0000000  1.0000000 )
                  (  1.0000000  0.0000000  0.0000000 )


      isym = 18     120 deg rotation - cart. axis [-1,1,1]       

 cryst.   s(18) = (     0          1          0      )
                  (     0          0          1      )
                  (     1          0          0      )

 cart.    s(18) = (  0.0000000 -1.0000000  0.0000000 )
                  (  0.0000000  0.0000000  1.0000000 )
                  ( -1.0000000  0.0000000  0.0000000 )


      isym = 19     120 deg rotation - cart. axis [1,1,-1]       

 cryst.   s(19) = (     1          0         -1      )
                  (     0          0         -1      )
                  (     0          1         -1      )

 cart.    s(19) = (  0.0000000  1.0000000  0.0000000 )
                  (  0.0000000  0.0000000 -1.0000000 )
                  ( -1.0000000  0.0000000  0.0000000 )


      isym = 20     120 deg rotation - cart. axis [1,-1,1]       

 cryst.   s(20) = (     0         -1          0      )
                  (     1         -1          0      )
                  (     0         -1          1      )

 cart.    s(20) = (  0.0000000 -1.0000000  0.0000000 )
                  (  0.0000000  0.0000000 -1.0000000 )
                  (  1.0000000  0.0000000  0.0000000 )


      isym = 21     120 deg rotation - cart. axis [1,1,1]        

 cryst.   s(21) = (     0          0         -1      )
                  (     0          1         -1      )
                  (     1          0         -1      )

 cart.    s(21) = (  0.0000000  0.0000000  1.0000000 )
                  (  1.0000000  0.0000000  0.0000000 )
                  (  0.0000000  1.0000000  0.0000000 )


      isym = 22     120 deg rotation - cart. axis [-1,1,-1]      

 cryst.   s(22) = (    -1          1          0      )
                  (    -1          0          0      )
                  (    -1          0          1      )

 cart.    s(22) = (  0.0000000  0.0000000  1.0000000 )
                  ( -1.0000000  0.0000000  0.0000000 )
                  (  0.0000000 -1.0000000  0.0000000 )


      isym = 23     120 deg rotation - cart. axis [1,-1,-1]      

 cryst.   s(23) = (     0          0          1      )
                  (     1          0          0      )
                  (     0          1          0      )

 cart.    s(23) = (  0.0000000  0.0000000 -1.0000000 )
                  ( -1.0000000  0.0000000  0.0000000 )
                  (  0.0000000  1.0000000  0.0000000 )


      isym = 24     120 deg rotation - cart. axis [-1,-1,1]      

 cryst.   s(24) = (     1         -1          0      )
                  (     0         -1          1      )
                  (     0         -1          0      )

 cart.    s(24) = (  0.0000000  0.0000000 -1.0000000 )
                  (  1.0000000  0.0000000  0.0000000 )
                  (  0.0000000 -1.0000000  0.0000000 )


      isym = 25     inversion                                    

 cryst.   s(25) = (    -1          0          0      )    f =(  0.2500000 )
                  (     0         -1          0      )       (  0.2500000 )
                  (     0          0         -1      )       (  0.2500000 )

 cart.    s(25) = ( -1.0000000  0.0000000  0.0000000 )    f =( -0.2500000 )
                  (  0.0000000 -1.0000000  0.0000000 )       (  0.2500000 )
                  (  0.0000000  0.0000000 -1.0000000 )       (  0.2500000 )


      isym = 26     inv. 180 deg rotation - cart. axis [0,0,1]   

 cryst.   s(26) = (     0         -1          1      )    f =(  0.2500000 )
                  (    -1          0          1      )       (  0.2500000 )
                  (     0          0          1      )       (  0.2500000 )

 cart.    s(26) = (  1.0000000  0.0000000  0.0000000 )    f =( -0.2500000 )
                  (  0.0000000  1.0000000  0.0000000 )       (  0.2500000 )
                  (  0.0000000  0.0000000 -1.0000000 )       (  0.2500000 )


      isym = 27     inv. 180 deg rotation - cart. axis [0,1,0]   

 cryst.   s(27) = (     1          0          0      )    f =(  0.2500000 )
                  (     1          0         -1      )       (  0.2500000 )
                  (     1         -1          0      )       (  0.2500000 )

 cart.    s(27) = (  1.0000000  0.0000000  0.0000000 )    f =( -0.2500000 )
                  (  0.0000000 -1.0000000  0.0000000 )       (  0.2500000 )
                  (  0.0000000  0.0000000  1.0000000 )       (  0.2500000 )


      isym = 28     inv. 180 deg rotation - cart. axis [1,0,0]   

 cryst.   s(28) = (     0          1         -1      )    f =(  0.2500000 )
                  (     0          1          0      )       (  0.2500000 )
                  (    -1          1          0      )       (  0.2500000 )

 cart.    s(28) = ( -1.0000000  0.0000000  0.0000000 )    f =( -0.2500000 )
                  (  0.0000000  1.0000000  0.0000000 )       (  0.2500000 )
                  (  0.0000000  0.0000000  1.0000000 )       (  0.2500000 )


      isym = 29     inv. 180 deg rotation - cart. axis [1,1,0]   

 cryst.   s(29) = (     0          1          0      )
                  (     1          0          0      )
                  (     0          0          1      )

 cart.    s(29) = (  0.0000000 -1.0000000  0.0000000 )
                  ( -1.0000000  0.0000000  0.0000000 )
                  (  0.0000000  0.0000000  1.0000000 )


      isym = 30     inv. 180 deg rotation - cart. axis [1,-1,0]  

 cryst.   s(30) = (     1          0         -1      )
                  (     0          1         -1      )
                  (     0          0         -1      )

 cart.    s(30) = (  0.0000000  1.0000000  0.0000000 )
                  (  1.0000000  0.0000000  0.0000000 )
                  (  0.0000000  0.0000000  1.0000000 )


      isym = 31     inv.  90 deg rotation - cart. axis [0,0,-1]  

 cryst.   s(31) = (     0         -1          0      )
                  (     0         -1          1      )
                  (     1         -1          0      )

 cart.    s(31) = (  0.0000000 -1.0000000  0.0000000 )
                  (  1.0000000  0.0000000  0.0000000 )
                  (  0.0000000  0.0000000 -1.0000000 )


      isym = 32     inv.  90 deg rotation - cart. axis [0,0,1]   

 cryst.   s(32) = (    -1          0          1      )
                  (    -1          0          0      )
                  (    -1          1          0      )

 cart.    s(32) = (  0.0000000  1.0000000  0.0000000 )
                  ( -1.0000000  0.0000000  0.0000000 )
                  (  0.0000000  0.0000000 -1.0000000 )


      isym = 33     inv. 180 deg rotation - cart. axis [1,0,1]   

 cryst.   s(33) = (     1          0          0      )
                  (     0          0          1      )
                  (     0          1          0      )

 cart.    s(33) = (  0.0000000  0.0000000 -1.0000000 )
                  (  0.0000000  1.0000000  0.0000000 )
                  ( -1.0000000  0.0000000  0.0000000 )


      isym = 34     inv. 180 deg rotation - cart. axis [-1,0,1]  

 cryst.   s(34) = (    -1          0          0      )
                  (    -1          1          0      )
                  (    -1          0          1      )

 cart.    s(34) = (  0.0000000  0.0000000  1.0000000 )
                  (  0.0000000  1.0000000  0.0000000 )
                  (  1.0000000  0.0000000  0.0000000 )


      isym = 35     inv.  90 deg rotation - cart. axis [0,1,0]   

 cryst.   s(35) = (     0         -1          1      )
                  (     1         -1          0      )
                  (     0         -1          0      )

 cart.    s(35) = (  0.0000000  0.0000000 -1.0000000 )
                  (  0.0000000 -1.0000000  0.0000000 )
                  (  1.0000000  0.0000000  0.0000000 )


      isym = 36     inv.  90 deg rotation - cart. axis [0,-1,0]  

 cryst.   s(36) = (     0          1         -1      )
                  (     0          0         -1      )
                  (     1          0         -1      )

 cart.    s(36) = (  0.0000000  0.0000000  1.0000000 )
                  (  0.0000000 -1.0000000  0.0000000 )
                  ( -1.0000000  0.0000000  0.0000000 )


      isym = 37     inv. 180 deg rotation - cart. axis [0,1,1]   

 cryst.   s(37) = (     1         -1          0      )
                  (     0         -1          0      )
                  (     0         -1          1      )

 cart.    s(37) = (  1.0000000  0.0000000  0.0000000 )
                  (  0.0000000  0.0000000 -1.0000000 )
                  (  0.0000000 -1.0000000  0.0000000 )


      isym = 38     inv. 180 deg rotation - cart. axis [0,1,-1]  

 cryst.   s(38) = (     0          0          1      )
                  (     0          1          0      )
                  (     1          0          0      )

 cart.    s(38) = (  1.0000000  0.0000000  0.0000000 )
                  (  0.0000000  0.0000000  1.0000000 )
                  (  0.0000000  1.0000000  0.0000000 )


      isym = 39     inv.  90 deg rotation - cart. axis [-1,0,0]  

 cryst.   s(39) = (     0          0         -1      )
                  (     1          0         -1      )
                  (     0          1         -1      )

 cart.    s(39) = ( -1.0000000  0.0000000  0.0000000 )
                  (  0.0000000  0.0000000 -1.0000000 )
                  (  0.0000000  1.0000000  0.0000000 )


      isym = 40     inv.  90 deg rotation - cart. axis [1,0,0]   

 cryst.   s(40) = (    -1          1          0      )
                  (    -1          0          1      )
                  (    -1          0          0      )

 cart.    s(40) = ( -1.0000000  0.0000000  0.0000000 )
                  (  0.0000000  0.0000000  1.0000000 )
                  (  0.0000000 -1.0000000  0.0000000 )


      isym = 41     inv. 120 deg rotation - cart. axis [-1,-1,-1]

 cryst.   s(41) = (     1          0         -1      )    f =(  0.2500000 )
                  (     1         -1          0      )       (  0.2500000 )
                  (     1          0          0      )       (  0.2500000 )

 cart.    s(41) = (  0.0000000 -1.0000000  0.0000000 )    f =( -0.2500000 )
                  (  0.0000000  0.0000000 -1.0000000 )       (  0.2500000 )
                  ( -1.0000000  0.0000000  0.0000000 )       (  0.2500000 )


      isym = 42     inv. 120 deg rotation - cart. axis [-1,1,1]  

 cryst.   s(42) = (     0         -1          0      )    f =(  0.2500000 )
                  (     0          0         -1      )       (  0.2500000 )
                  (    -1          0          0      )       (  0.2500000 )

 cart.    s(42) = (  0.0000000  1.0000000  0.0000000 )    f =( -0.2500000 )
                  (  0.0000000  0.0000000 -1.0000000 )       (  0.2500000 )
                  (  1.0000000  0.0000000  0.0000000 )       (  0.2500000 )


      isym = 43     inv. 120 deg rotation - cart. axis [1,1,-1]  

 cryst.   s(43) = (    -1          0          1      )    f =(  0.2500000 )
                  (     0          0          1      )       (  0.2500000 )
                  (     0         -1          1      )       (  0.2500000 )

 cart.    s(43) = (  0.0000000 -1.0000000  0.0000000 )    f =( -0.2500000 )
                  (  0.0000000  0.0000000  1.0000000 )       (  0.2500000 )
                  (  1.0000000  0.0000000  0.0000000 )       (  0.2500000 )


      isym = 44     inv. 120 deg rotation - cart. axis [1,-1,1]  

 cryst.   s(44) = (     0          1          0      )    f =(  0.2500000 )
                  (    -1          1          0      )       (  0.2500000 )
                  (     0          1         -1      )       (  0.2500000 )

 cart.    s(44) = (  0.0000000  1.0000000  0.0000000 )    f =( -0.2500000 )
                  (  0.0000000  0.0000000  1.0000000 )       (  0.2500000 )
                  ( -1.0000000  0.0000000  0.0000000 )       (  0.2500000 )


      isym = 45     inv. 120 deg rotation - cart. axis [1,1,1]   

 cryst.   s(45) = (     0          0          1      )    f =(  0.2500000 )
                  (     0         -1          1      )       (  0.2500000 )
                  (    -1          0          1      )       (  0.2500000 )

 cart.    s(45) = (  0.0000000  0.0000000 -1.0000000 )    f =( -0.2500000 )
                  ( -1.0000000  0.0000000  0.0000000 )       (  0.2500000 )
                  (  0.0000000 -1.0000000  0.0000000 )       (  0.2500000 )


      isym = 46     inv. 120 deg rotation - cart. axis [-1,1,-1] 

 cryst.   s(46) = (     1         -1          0      )    f =(  0.2500000 )
                  (     1          0          0      )       (  0.2500000 )
                  (     1          0         -1      )       (  0.2500000 )

 cart.    s(46) = (  0.0000000  0.0000000 -1.0000000 )    f =( -0.2500000 )
                  (  1.0000000  0.0000000  0.0000000 )       (  0.2500000 )
                  (  0.0000000  1.0000000  0.0000000 )       (  0.2500000 )


      isym = 47     inv. 120 deg rotation - cart. axis [1,-1,-1] 

 cryst.   s(47) = (     0          0         -1      )    f =(  0.2500000 )
                  (    -1          0          0      )       (  0.2500000 )
                  (     0         -1          0      )       (  0.2500000 )

 cart.    s(47) = (  0.0000000  0.0000000  1.0000000 )    f =( -0.2500000 )
                  (  1.0000000  0.0000000  0.0000000 )       (  0.2500000 )
                  (  0.0000000 -1.0000000  0.0000000 )       (  0.2500000 )


      isym = 48     inv. 120 deg rotation - cart. axis [-1,-1,1] 

 cryst.   s(48) = (    -1          1          0      )    f =(  0.2500000 )
                  (     0          1         -1      )       (  0.2500000 )
                  (     0          1          0      )       (  0.2500000 )

 cart.    s(48) = (  0.0000000  0.0000000  1.0000000 )    f =( -0.2500000 )
                  ( -1.0000000  0.0000000  0.0000000 )       (  0.2500000 )
                  (  0.0000000  1.0000000  0.0000000 )       (  0.2500000 )


     point group O_h (m-3m) 
     there are 10 classes
     the character table:

       E     8C3   3C2   6C4   6C2'  i     8S6   3s_h  6S4   6s_d 
A_1g   1.00  1.00  1.00  1.00  1.00  1.00  1.00  1.00  1.00  1.00
A_2g   1.00  1.00  1.00 -1.00 -1.00  1.00  1.00  1.00 -1.00 -1.00
E_g    2.00 -1.00  2.00  0.00  0.00  2.00 -1.00  2.00  0.00  0.00
T_1g   3.00  0.00 -1.00  1.00 -1.00  3.00  0.00 -1.00  1.00 -1.00
T_2g   3.00  0.00 -1.00 -1.00  1.00  3.00  0.00 -1.00 -1.00  1.00
A_1u   1.00  1.00  1.00  1.00  1.00 -1.00 -1.00 -1.00 -1.00 -1.00
A_2u   1.00  1.00  1.00 -1.00 -1.00 -1.00 -1.00 -1.00  1.00  1.00
E_u    2.00 -1.00  2.00  0.00  0.00 -2.00  1.00 -2.00  0.00  0.00
T_1u   3.00  0.00 -1.00  1.00 -1.00 -3.00  0.00  1.00 -1.00  1.00
T_2u   3.00  0.00 -1.00 -1.00  1.00 -3.00  0.00  1.00  1.00 -1.00

     the symmetry operations in each class and the name of the first element:

     E        1
          identity                                               
     8C3     17   19   20   18   24   21   22   23
          120 deg rotation - cart. axis [-1,-1,-1]               
     3C2      2    4    3
          180 deg rotation - cart. axis [0,0,1]                  
     6C4      7    8   15   16   12   11
           90 deg rotation - cart. axis [0,0,-1]                 
     6C2'     5    6   14   13   10    9
          180 deg rotation - cart. axis [1,1,0]                  
     i       25
          inversion                                              
     8S6     41   43   44   42   48   45   46   47
          inv. 120 deg rotation - cart. axis [-1,-1,-1]          
     3s_h    26   28   27
          inv. 180 deg rotation - cart. axis [0,0,1]             
     6S4     31   32   39   40   36   35
          inv.  90 deg rotation - cart. axis [0,0,-1]            
     6s_d    29   30   38   37   34   33
          inv. 180 deg rotation - cart. axis [1,1,0]             

   Cartesian axes

     site n.     atom                  positions (alat units)
         1           Si  tau(   1) = (   0.0000000   0.0000000   0.0000000  )
         2           Si  tau(   2) = (   0.2500000   0.2500000   0.2500000  )

   Crystallographic axes

     site n.     atom                  positions (cryst. coord.)
         1           Si  tau(   1) = (  0.0000000  0.0000000  0.0000000  )
         2           Si  tau(   2) = ( -0.2500000  0.7500000 -0.2500000  )

     number of k points=  2992
                       cart. coord. in units 2pi/alat
        k(    1) = (  -0.0156250   0.0156250   0.0156250), wk =   0.0001221
        k(    2) = (  -0.0468750   0.0468750  -0.0156250), wk =   0.0003662
        k(    3) = (  -0.0781250   0.0781250  -0.0468750), wk =   0.0003662
        k(    4) = (  -0.1093750   0.1093750  -0.0781250), wk =   0.0003662
        k(    5) = (  -0.1406250   0.1406250  -0.1093750), wk =   0.0003662
        k(    6) = (  -0.1718750   0.1718750  -0.1406250), wk =   0.0003662
        k(    7) = (  -0.2031250   0.2031250  -0.1718750), wk =   0.0003662
        k(    8) = (  -0.2343750   0.2343750  -0.2031250), wk =   0.0003662
        k(    9) = (  -0.2656250   0.2656250  -0.2343750), wk =   0.0003662
        k(   10) = (  -0.2968750   0.2968750  -0.2656250), wk =   0.0003662
        k(   11) = (  -0.3281250   0.3281250  -0.2968750), wk =   0.0003662
        k(   12) = (  -0.3593750   0.3593750  -0.3281250), wk =   0.0003662
        k(   13) = (  -0.3906250   0.3906250  -0.3593750), wk =   0.0003662
        k(   14) = (  -0.4218750   0.4218750  -0.3906250), wk =   0.0003662
        k(   15) = (  -0.4531250   0.4531250  -0.4218750), wk =   0.0003662
        k(   16) = (  -0.4843750   0.4843750  -0.4531250), wk =   0.0003662
        k(   17) = (   0.4843750  -0.4843750   0.5156250), wk =   0.0003662
        k(   18) = (   0.4531250  -0.4531250   0.4843750), wk =   0.0003662
        k(   19) = (   0.4218750  -0.4218750   0.4531250), wk =   0.0003662
        k(   20) = (   0.3906250  -0.3906250   0.4218750), wk =   0.0003662
        k(   21) = (   0.3593750  -0.3593750   0.3906250), wk =   0.0003662
        k(   22) = (   0.3281250  -0.3281250   0.3593750), wk =   0.0003662
        k(   23) = (   0.2968750  -0.2968750   0.3281250), wk =   0.0003662
        k(   24) = (   0.2656250  -0.2656250   0.2968750), wk =   0.0003662
        k(   25) = (   0.2343750  -0.2343750   0.2656250), wk =   0.0003662
        k(   26) = (   0.2031250  -0.2031250   0.2343750), wk =   0.0003662
        k(   27) = (   0.1718750  -0.1718750   0.2031250), wk =   0.0003662
        k(   28) = (   0.1406250  -0.1406250   0.1718750), wk =   0.0003662
        k(   29) = (   0.1093750  -0.1093750   0.1406250), wk =   0.0003662
        k(   30) = (   0.0781250  -0.0781250   0.1093750), wk =   0.0003662
        k(   31) = (   0.0468750  -0.0468750   0.0781250), wk =   0.0003662
        k(   32) = (   0.0156250  -0.0156250   0.0468750), wk =   0.0003662
        k(   33) = (  -0.0156250   0.0781250   0.0156250), wk =   0.0003662
        k(   34) = (  -0.0468750   0.1093750  -0.0156250), wk =   0.0007324
        k(   35) = (  -0.0781250   0.1406250  -0.0468750), wk =   0.0007324
        k(   36) = (  -0.1093750   0.1718750  -0.0781250), wk =   0.0007324
        k(   37) = (  -0.1406250   0.2031250  -0.1093750), wk =   0.0007324
        k(   38) = (  -0.1718750   0.2343750  -0.1406250), wk =   0.0007324
        k(   39) = (  -0.2031250   0.2656250  -0.1718750), wk =   0.0007324
        k(   40) = (  -0.2343750   0.2968750  -0.2031250), wk =   0.0007324
        k(   41) = (  -0.2656250   0.3281250  -0.2343750), wk =   0.0007324
        k(   42) = (  -0.2968750   0.3593750  -0.2656250), wk =   0.0007324
        k(   43) = (  -0.3281250   0.3906250  -0.2968750), wk =   0.0007324
        k(   44) = (  -0.3593750   0.4218750  -0.3281250), wk =   0.0007324
        k(   45) = (  -0.3906250   0.4531250  -0.3593750), wk =   0.0007324
        k(   46) = (  -0.4218750   0.4843750  -0.3906250), wk =   0.0007324
        k(   47) = (  -0.4531250   0.5156250  -0.4218750), wk =   0.0007324
        k(   48) = (   0.5156250  -0.4531250   0.5468750), wk =   0.0007324
        k(   49) = (   0.4843750  -0.4218750   0.5156250), wk =   0.0007324
        k(   50) = (   0.4531250  -0.3906250   0.4843750), wk =   0.0007324
        k(   51) = (   0.4218750  -0.3593750   0.4531250), wk =   0.0007324
        k(   52) = (   0.3906250  -0.3281250   0.4218750), wk =   0.0007324
        k(   53) = (   0.3593750  -0.2968750   0.3906250), wk =   0.0007324
        k(   54) = (   0.3281250  -0.2656250   0.3593750), wk =   0.0007324
        k(   55) = (   0.2968750  -0.2343750   0.3281250), wk =   0.0007324
        k(   56) = (   0.2656250  -0.2031250   0.2968750), wk =   0.0007324
        k(   57) = (   0.2343750  -0.1718750   0.2656250), wk =   0.0007324
        k(   58) = (   0.2031250  -0.1406250   0.2343750), wk =   0.0007324
        k(   59) = (   0.1718750  -0.1093750   0.2031250), wk =   0.0007324
        k(   60) = (   0.1406250  -0.0781250   0.1718750), wk =   0.0007324
        k(   61) = (   0.1093750  -0.0468750   0.1406250), wk =   0.0007324
        k(   62) = (   0.0781250  -0.0156250   0.1093750), wk =   0.0007324
        k(   63) = (   0.0468750   0.0156250   0.0781250), wk =   0.0007324
        k(   64) = (  -0.0156250   0.1406250   0.0156250), wk =   0.0003662
        k(   65) = (  -0.0468750   0.1718750  -0.0156250), wk =   0.0007324
        k(   66) = (  -0.0781250   0.2031250  -0.0468750), wk =   0.0007324
        k(   67) = (  -0.1093750   0.2343750  -0.0781250), wk =   0.0007324
        k(   68) = (  -0.1406250   0.2656250  -0.1093750), wk =   0.0007324
        k(   69) = (  -0.1718750   0.2968750  -0.1406250), wk =   0.0007324
        k(   70) = (  -0.2031250   0.3281250  -0.1718750), wk =   0.0007324
        k(   71) = (  -0.2343750   0.3593750  -0.2031250), wk =   0.0007324
        k(   72) = (  -0.2656250   0.3906250  -0.2343750), wk =   0.0007324
        k(   73) = (  -0.2968750   0.4218750  -0.2656250), wk =   0.0007324
        k(   74) = (  -0.3281250   0.4531250  -0.2968750), wk =   0.0007324
        k(   75) = (  -0.3593750   0.4843750  -0.3281250), wk =   0.0007324
        k(   76) = (  -0.3906250   0.5156250  -0.3593750), wk =   0.0007324
        k(   77) = (  -0.4218750   0.5468750  -0.3906250), wk =   0.0007324
        k(   78) = (   0.5468750  -0.4218750   0.5781250), wk =   0.0007324
        k(   79) = (   0.5156250  -0.3906250   0.5468750), wk =   0.0007324
        k(   80) = (   0.4843750  -0.3593750   0.5156250), wk =   0.0007324
        k(   81) = (   0.4531250  -0.3281250   0.4843750), wk =   0.0007324
        k(   82) = (   0.4218750  -0.2968750   0.4531250), wk =   0.0007324
        k(   83) = (   0.3906250  -0.2656250   0.4218750), wk =   0.0007324
        k(   84) = (   0.3593750  -0.2343750   0.3906250), wk =   0.0007324
        k(   85) = (   0.3281250  -0.2031250   0.3593750), wk =   0.0007324
        k(   86) = (   0.2968750  -0.1718750   0.3281250), wk =   0.0007324
        k(   87) = (   0.2656250  -0.1406250   0.2968750), wk =   0.0007324
        k(   88) = (   0.2343750  -0.1093750   0.2656250), wk =   0.0007324
        k(   89) = (   0.2031250  -0.0781250   0.2343750), wk =   0.0007324
        k(   90) = (   0.1718750  -0.0468750   0.2031250), wk =   0.0007324
        k(   91) = (   0.1406250  -0.0156250   0.1718750), wk =   0.0007324
        k(   92) = (   0.1093750   0.0156250   0.1406250), wk =   0.0007324
        k(   93) = (   0.0781250   0.0468750   0.1093750), wk =   0.0007324
        k(   94) = (  -0.0156250   0.2031250   0.0156250), wk =   0.0003662
        k(   95) = (  -0.0468750   0.2343750  -0.0156250), wk =   0.0007324
        k(   96) = (  -0.0781250   0.2656250  -0.0468750), wk =   0.0007324
        k(   97) = (  -0.1093750   0.2968750  -0.0781250), wk =   0.0007324
        k(   98) = (  -0.1406250   0.3281250  -0.1093750), wk =   0.0007324
        k(   99) = (  -0.1718750   0.3593750  -0.1406250), wk =   0.0007324
        k(  100) = (  -0.2031250   0.3906250  -0.1718750), wk =   0.0007324
        k(  101) = (  -0.2343750   0.4218750  -0.2031250), wk =   0.0007324
        k(  102) = (  -0.2656250   0.4531250  -0.2343750), wk =   0.0007324
        k(  103) = (  -0.2968750   0.4843750  -0.2656250), wk =   0.0007324
        k(  104) = (  -0.3281250   0.5156250  -0.2968750), wk =   0.0007324
        k(  105) = (  -0.3593750   0.5468750  -0.3281250), wk =   0.0007324
        k(  106) = (  -0.3906250   0.5781250  -0.3593750), wk =   0.0007324
        k(  107) = (   0.5781250  -0.3906250   0.6093750), wk =   0.0007324
        k(  108) = (   0.5468750  -0.3593750   0.5781250), wk =   0.0007324
        k(  109) = (   0.5156250  -0.3281250   0.5468750), wk =   0.0007324
        k(  110) = (   0.4843750  -0.2968750   0.5156250), wk =   0.0007324
        k(  111) = (   0.4531250  -0.2656250   0.4843750), wk =   0.0007324
        k(  112) = (   0.4218750  -0.2343750   0.4531250), wk =   0.0007324
        k(  113) = (   0.3906250  -0.2031250   0.4218750), wk =   0.0007324
        k(  114) = (   0.3593750  -0.1718750   0.3906250), wk =   0.0007324
        k(  115) = (   0.3281250  -0.1406250   0.3593750), wk =   0.0007324
        k(  116) = (   0.2968750  -0.1093750   0.3281250), wk =   0.0007324
        k(  117) = (   0.2656250  -0.0781250   0.2968750), wk =   0.0007324
        k(  118) = (   0.2343750  -0.0468750   0.2656250), wk =   0.0007324
        k(  119) = (   0.2031250  -0.0156250   0.2343750), wk =   0.0007324
        k(  120) = (   0.1718750   0.0156250   0.2031250), wk =   0.0007324
        k(  121) = (   0.1406250   0.0468750   0.1718750), wk =   0.0007324
        k(  122) = (   0.1093750   0.0781250   0.1406250), wk =   0.0007324
        k(  123) = (  -0.0156250   0.2656250   0.0156250), wk =   0.0003662
        k(  124) = (  -0.0468750   0.2968750  -0.0156250), wk =   0.0007324
        k(  125) = (  -0.0781250   0.3281250  -0.0468750), wk =   0.0007324
        k(  126) = (  -0.1093750   0.3593750  -0.0781250), wk =   0.0007324
        k(  127) = (  -0.1406250   0.3906250  -0.1093750), wk =   0.0007324
        k(  128) = (  -0.1718750   0.4218750  -0.1406250), wk =   0.0007324
        k(  129) = (  -0.2031250   0.4531250  -0.1718750), wk =   0.0007324
        k(  130) = (  -0.2343750   0.4843750  -0.2031250), wk =   0.0007324
        k(  131) = (  -0.2656250   0.5156250  -0.2343750), wk =   0.0007324
        k(  132) = (  -0.2968750   0.5468750  -0.2656250), wk =   0.0007324
        k(  133) = (  -0.3281250   0.5781250  -0.2968750), wk =   0.0007324
        k(  134) = (  -0.3593750   0.6093750  -0.3281250), wk =   0.0007324
        k(  135) = (   0.6093750  -0.3593750   0.6406250), wk =   0.0007324
        k(  136) = (   0.5781250  -0.3281250   0.6093750), wk =   0.0007324
        k(  137) = (   0.5468750  -0.2968750   0.5781250), wk =   0.0007324
        k(  138) = (   0.5156250  -0.2656250   0.5468750), wk =   0.0007324
        k(  139) = (   0.4843750  -0.2343750   0.5156250), wk =   0.0007324
        k(  140) = (   0.4531250  -0.2031250   0.4843750), wk =   0.0007324
        k(  141) = (   0.4218750  -0.1718750   0.4531250), wk =   0.0007324
        k(  142) = (   0.3906250  -0.1406250   0.4218750), wk =   0.0007324
        k(  143) = (   0.3593750  -0.1093750   0.3906250), wk =   0.0007324
        k(  144) = (   0.3281250  -0.0781250   0.3593750), wk =   0.0007324
        k(  145) = (   0.2968750  -0.0468750   0.3281250), wk =   0.0007324
        k(  146) = (   0.2656250  -0.0156250   0.2968750), wk =   0.0007324
        k(  147) = (   0.2343750   0.0156250   0.2656250), wk =   0.0007324
        k(  148) = (   0.2031250   0.0468750   0.2343750), wk =   0.0007324
        k(  149) = (   0.1718750   0.0781250   0.2031250), wk =   0.0007324
        k(  150) = (   0.1406250   0.1093750   0.1718750), wk =   0.0007324
        k(  151) = (  -0.0156250   0.3281250   0.0156250), wk =   0.0003662
        k(  152) = (  -0.0468750   0.3593750  -0.0156250), wk =   0.0007324
        k(  153) = (  -0.0781250   0.3906250  -0.0468750), wk =   0.0007324
        k(  154) = (  -0.1093750   0.4218750  -0.0781250), wk =   0.0007324
        k(  155) = (  -0.1406250   0.4531250  -0.1093750), wk =   0.0007324
        k(  156) = (  -0.1718750   0.4843750  -0.1406250), wk =   0.0007324
        k(  157) = (  -0.2031250   0.5156250  -0.1718750), wk =   0.0007324
        k(  158) = (  -0.2343750   0.5468750  -0.2031250), wk =   0.0007324
        k(  159) = (  -0.2656250   0.5781250  -0.2343750), wk =   0.0007324
        k(  160) = (  -0.2968750   0.6093750  -0.2656250), wk =   0.0007324
        k(  161) = (  -0.3281250   0.6406250  -0.2968750), wk =   0.0007324
        k(  162) = (   0.6406250  -0.3281250   0.6718750), wk =   0.0007324
        k(  163) = (   0.6093750  -0.2968750   0.6406250), wk =   0.0007324
        k(  164) = (   0.5781250  -0.2656250   0.6093750), wk =   0.0007324
        k(  165) = (   0.5468750  -0.2343750   0.5781250), wk =   0.0007324
        k(  166) = (   0.5156250  -0.2031250   0.5468750), wk =   0.0007324
        k(  167) = (   0.4843750  -0.1718750   0.5156250), wk =   0.0007324
        k(  168) = (   0.4531250  -0.1406250   0.4843750), wk =   0.0007324
        k(  169) = (   0.4218750  -0.1093750   0.4531250), wk =   0.0007324
        k(  170) = (   0.3906250  -0.0781250   0.4218750), wk =   0.0007324
        k(  171) = (   0.3593750  -0.0468750   0.3906250), wk =   0.0007324
        k(  172) = (   0.3281250  -0.0156250   0.3593750), wk =   0.0007324
        k(  173) = (   0.2968750   0.0156250   0.3281250), wk =   0.0007324
        k(  174) = (   0.2656250   0.0468750   0.2968750), wk =   0.0007324
        k(  175) = (   0.2343750   0.0781250   0.2656250), wk =   0.0007324
        k(  176) = (   0.2031250   0.1093750   0.2343750), wk =   0.0007324
        k(  177) = (   0.1718750   0.1406250   0.2031250), wk =   0.0007324
        k(  178) = (  -0.0156250   0.3906250   0.0156250), wk =   0.0003662
        k(  179) = (  -0.0468750   0.4218750  -0.0156250), wk =   0.0007324
        k(  180) = (  -0.0781250   0.4531250  -0.0468750), wk =   0.0007324
        k(  181) = (  -0.1093750   0.4843750  -0.0781250), wk =   0.0007324
        k(  182) = (  -0.1406250   0.5156250  -0.1093750), wk =   0.0007324
        k(  183) = (  -0.1718750   0.5468750  -0.1406250), wk =   0.0007324
        k(  184) = (  -0.2031250   0.5781250  -0.1718750), wk =   0.0007324
        k(  185) = (  -0.2343750   0.6093750  -0.2031250), wk =   0.0007324
        k(  186) = (  -0.2656250   0.6406250  -0.2343750), wk =   0.0007324
        k(  187) = (  -0.2968750   0.6718750  -0.2656250), wk =   0.0007324
        k(  188) = (   0.6718750  -0.2968750   0.7031250), wk =   0.0007324
        k(  189) = (   0.6406250  -0.2656250   0.6718750), wk =   0.0007324
        k(  190) = (   0.6093750  -0.2343750   0.6406250), wk =   0.0007324
        k(  191) = (   0.5781250  -0.2031250   0.6093750), wk =   0.0007324
        k(  192) = (   0.5468750  -0.1718750   0.5781250), wk =   0.0007324
        k(  193) = (   0.5156250  -0.1406250   0.5468750), wk =   0.0007324
        k(  194) = (   0.4843750  -0.1093750   0.5156250), wk =   0.0007324
        k(  195) = (   0.4531250  -0.0781250   0.4843750), wk =   0.0007324
        k(  196) = (   0.4218750  -0.0468750   0.4531250), wk =   0.0007324
        k(  197) = (   0.3906250  -0.0156250   0.4218750), wk =   0.0007324
        k(  198) = (   0.3593750   0.0156250   0.3906250), wk =   0.0007324
        k(  199) = (   0.3281250   0.0468750   0.3593750), wk =   0.0007324
        k(  200) = (   0.2968750   0.0781250   0.3281250), wk =   0.0007324
        k(  201) = (   0.2656250   0.1093750   0.2968750), wk =   0.0007324
        k(  202) = (   0.2343750   0.1406250   0.2656250), wk =   0.0007324
        k(  203) = (   0.2031250   0.1718750   0.2343750), wk =   0.0007324
        k(  204) = (  -0.0156250   0.4531250   0.0156250), wk =   0.0003662
        k(  205) = (  -0.0468750   0.4843750  -0.0156250), wk =   0.0007324
        k(  206) = (  -0.0781250   0.5156250  -0.0468750), wk =   0.0007324
        k(  207) = (  -0.1093750   0.5468750  -0.0781250), wk =   0.0007324
        k(  208) = (  -0.1406250   0.5781250  -0.1093750), wk =   0.0007324
        k(  209) = (  -0.1718750   0.6093750  -0.1406250), wk =   0.0007324
        k(  210) = (  -0.2031250   0.6406250  -0.1718750), wk =   0.0007324
        k(  211) = (  -0.2343750   0.6718750  -0.2031250), wk =   0.0007324
        k(  212) = (  -0.2656250   0.7031250  -0.2343750), wk =   0.0007324
        k(  213) = (   0.7031250  -0.2656250   0.7343750), wk =   0.0007324
        k(  214) = (   0.6718750  -0.2343750   0.7031250), wk =   0.0007324
        k(  215) = (   0.6406250  -0.2031250   0.6718750), wk =   0.0007324
        k(  216) = (   0.6093750  -0.1718750   0.6406250), wk =   0.0007324
        k(  217) = (   0.5781250  -0.1406250   0.6093750), wk =   0.0007324
        k(  218) = (   0.5468750  -0.1093750   0.5781250), wk =   0.0007324
        k(  219) = (   0.5156250  -0.0781250   0.5468750), wk =   0.0007324
        k(  220) = (   0.4843750  -0.0468750   0.5156250), wk =   0.0007324
        k(  221) = (   0.4531250  -0.0156250   0.4843750), wk =   0.0007324
        k(  222) = (   0.4218750   0.0156250   0.4531250), wk =   0.0007324
        k(  223) = (   0.3906250   0.0468750   0.4218750), wk =   0.0007324
        k(  224) = (   0.3593750   0.0781250   0.3906250), wk =   0.0007324
        k(  225) = (   0.3281250   0.1093750   0.3593750), wk =   0.0007324
        k(  226) = (   0.2968750   0.1406250   0.3281250), wk =   0.0007324
        k(  227) = (   0.2656250   0.1718750   0.2968750), wk =   0.0007324
        k(  228) = (   0.2343750   0.2031250   0.2656250), wk =   0.0007324
        k(  229) = (  -0.0156250   0.5156250   0.0156250), wk =   0.0003662
        k(  230) = (  -0.0468750   0.5468750  -0.0156250), wk =   0.0007324
        k(  231) = (  -0.0781250   0.5781250  -0.0468750), wk =   0.0007324
        k(  232) = (  -0.1093750   0.6093750  -0.0781250), wk =   0.0007324
        k(  233) = (  -0.1406250   0.6406250  -0.1093750), wk =   0.0007324
        k(  234) = (  -0.1718750   0.6718750  -0.1406250), wk =   0.0007324
        k(  235) = (  -0.2031250   0.7031250  -0.1718750), wk =   0.0007324
        k(  236) = (  -0.2343750   0.7343750  -0.2031250), wk =   0.0007324
        k(  237) = (   0.7343750  -0.2343750   0.7656250), wk =   0.0007324
        k(  238) = (   0.7031250  -0.2031250   0.7343750), wk =   0.0007324
        k(  239) = (   0.6718750  -0.1718750   0.7031250), wk =   0.0007324
        k(  240) = (   0.6406250  -0.1406250   0.6718750), wk =   0.0007324
        k(  241) = (   0.6093750  -0.1093750   0.6406250), wk =   0.0007324
        k(  242) = (   0.5781250  -0.0781250   0.6093750), wk =   0.0007324
        k(  243) = (   0.5468750  -0.0468750   0.5781250), wk =   0.0007324
        k(  244) = (   0.5156250  -0.0156250   0.5468750), wk =   0.0007324
        k(  245) = (   0.4843750   0.0156250   0.5156250), wk =   0.0007324
        k(  246) = (   0.4531250   0.0468750   0.4843750), wk =   0.0007324
        k(  247) = (   0.4218750   0.0781250   0.4531250), wk =   0.0007324
        k(  248) = (   0.3906250   0.1093750   0.4218750), wk =   0.0007324
        k(  249) = (   0.3593750   0.1406250   0.3906250), wk =   0.0007324
        k(  250) = (   0.3281250   0.1718750   0.3593750), wk =   0.0007324
        k(  251) = (   0.2968750   0.2031250   0.3281250), wk =   0.0007324
        k(  252) = (   0.2656250   0.2343750   0.2968750), wk =   0.0007324
        k(  253) = (  -0.0156250   0.5781250   0.0156250), wk =   0.0003662
        k(  254) = (  -0.0468750   0.6093750  -0.0156250), wk =   0.0007324
        k(  255) = (  -0.0781250   0.6406250  -0.0468750), wk =   0.0007324
        k(  256) = (  -0.1093750   0.6718750  -0.0781250), wk =   0.0007324
        k(  257) = (  -0.1406250   0.7031250  -0.1093750), wk =   0.0007324
        k(  258) = (  -0.1718750   0.7343750  -0.1406250), wk =   0.0007324
        k(  259) = (  -0.2031250   0.7656250  -0.1718750), wk =   0.0007324
        k(  260) = (   0.7656250  -0.2031250   0.7968750), wk =   0.0007324
        k(  261) = (   0.7343750  -0.1718750   0.7656250), wk =   0.0007324
        k(  262) = (   0.7031250  -0.1406250   0.7343750), wk =   0.0007324
        k(  263) = (   0.6718750  -0.1093750   0.7031250), wk =   0.0007324
        k(  264) = (   0.6406250  -0.0781250   0.6718750), wk =   0.0007324
        k(  265) = (   0.6093750  -0.0468750   0.6406250), wk =   0.0007324
        k(  266) = (   0.5781250  -0.0156250   0.6093750), wk =   0.0007324
        k(  267) = (   0.5468750   0.0156250   0.5781250), wk =   0.0007324
        k(  268) = (   0.5156250   0.0468750   0.5468750), wk =   0.0007324
        k(  269) = (   0.4843750   0.0781250   0.5156250), wk =   0.0007324
        k(  270) = (   0.4531250   0.1093750   0.4843750), wk =   0.0007324
        k(  271) = (   0.4218750   0.1406250   0.4531250), wk =   0.0007324
        k(  272) = (   0.3906250   0.1718750   0.4218750), wk =   0.0007324
        k(  273) = (   0.3593750   0.2031250   0.3906250), wk =   0.0007324
        k(  274) = (   0.3281250   0.2343750   0.3593750), wk =   0.0007324
        k(  275) = (   0.2968750   0.2656250   0.3281250), wk =   0.0007324
        k(  276) = (  -0.0156250   0.6406250   0.0156250), wk =   0.0003662
        k(  277) = (  -0.0468750   0.6718750  -0.0156250), wk =   0.0007324
        k(  278) = (  -0.0781250   0.7031250  -0.0468750), wk =   0.0007324
        k(  279) = (  -0.1093750   0.7343750  -0.0781250), wk =   0.0007324
        k(  280) = (  -0.1406250   0.7656250  -0.1093750), wk =   0.0007324
        k(  281) = (  -0.1718750   0.7968750  -0.1406250), wk =   0.0007324
        k(  282) = (   0.7968750  -0.1718750   0.8281250), wk =   0.0007324
        k(  283) = (   0.7656250  -0.1406250   0.7968750), wk =   0.0007324
        k(  284) = (   0.7343750  -0.1093750   0.7656250), wk =   0.0007324
        k(  285) = (   0.7031250  -0.0781250   0.7343750), wk =   0.0007324
        k(  286) = (   0.6718750  -0.0468750   0.7031250), wk =   0.0007324
        k(  287) = (   0.6406250  -0.0156250   0.6718750), wk =   0.0007324
        k(  288) = (   0.6093750   0.0156250   0.6406250), wk =   0.0007324
        k(  289) = (   0.5781250   0.0468750   0.6093750), wk =   0.0007324
        k(  290) = (   0.5468750   0.0781250   0.5781250), wk =   0.0007324
        k(  291) = (   0.5156250   0.1093750   0.5468750), wk =   0.0007324
        k(  292) = (   0.4843750   0.1406250   0.5156250), wk =   0.0007324
        k(  293) = (   0.4531250   0.1718750   0.4843750), wk =   0.0007324
        k(  294) = (   0.4218750   0.2031250   0.4531250), wk =   0.0007324
        k(  295) = (   0.3906250   0.2343750   0.4218750), wk =   0.0007324
        k(  296) = (   0.3593750   0.2656250   0.3906250), wk =   0.0007324
        k(  297) = (   0.3281250   0.2968750   0.3593750), wk =   0.0007324
        k(  298) = (  -0.0156250   0.7031250   0.0156250), wk =   0.0003662
        k(  299) = (  -0.0468750   0.7343750  -0.0156250), wk =   0.0007324
        k(  300) = (  -0.0781250   0.7656250  -0.0468750), wk =   0.0007324
        k(  301) = (  -0.1093750   0.7968750  -0.0781250), wk =   0.0007324
        k(  302) = (  -0.1406250   0.8281250  -0.1093750), wk =   0.0007324
        k(  303) = (   0.8281250  -0.1406250   0.8593750), wk =   0.0007324
        k(  304) = (   0.7968750  -0.1093750   0.8281250), wk =   0.0007324
        k(  305) = (   0.7656250  -0.0781250   0.7968750), wk =   0.0007324
        k(  306) = (   0.7343750  -0.0468750   0.7656250), wk =   0.0007324
        k(  307) = (   0.7031250  -0.0156250   0.7343750), wk =   0.0007324
        k(  308) = (   0.6718750   0.0156250   0.7031250), wk =   0.0007324
        k(  309) = (   0.6406250   0.0468750   0.6718750), wk =   0.0007324
        k(  310) = (   0.6093750   0.0781250   0.6406250), wk =   0.0007324
        k(  311) = (   0.5781250   0.1093750   0.6093750), wk =   0.0007324
        k(  312) = (   0.5468750   0.1406250   0.5781250), wk =   0.0007324
        k(  313) = (   0.5156250   0.1718750   0.5468750), wk =   0.0007324
        k(  314) = (   0.4843750   0.2031250   0.5156250), wk =   0.0007324
        k(  315) = (   0.4531250   0.2343750   0.4843750), wk =   0.0007324
        k(  316) = (   0.4218750   0.2656250   0.4531250), wk =   0.0007324
        k(  317) = (   0.3906250   0.2968750   0.4218750), wk =   0.0007324
        k(  318) = (   0.3593750   0.3281250   0.3906250), wk =   0.0007324
        k(  319) = (  -0.0156250   0.7656250   0.0156250), wk =   0.0003662
        k(  320) = (  -0.0468750   0.7968750  -0.0156250), wk =   0.0007324
        k(  321) = (  -0.0781250   0.8281250  -0.0468750), wk =   0.0007324
        k(  322) = (  -0.1093750   0.8593750  -0.0781250), wk =   0.0007324
        k(  323) = (   0.8593750  -0.1093750   0.8906250), wk =   0.0007324
        k(  324) = (   0.8281250  -0.0781250   0.8593750), wk =   0.0007324
        k(  325) = (   0.7968750  -0.0468750   0.8281250), wk =   0.0007324
        k(  326) = (   0.7656250  -0.0156250   0.7968750), wk =   0.0007324
        k(  327) = (   0.7343750   0.0156250   0.7656250), wk =   0.0007324
        k(  328) = (   0.7031250   0.0468750   0.7343750), wk =   0.0007324
        k(  329) = (   0.6718750   0.0781250   0.7031250), wk =   0.0007324
        k(  330) = (   0.6406250   0.1093750   0.6718750), wk =   0.0007324
        k(  331) = (   0.6093750   0.1406250   0.6406250), wk =   0.0007324
        k(  332) = (   0.5781250   0.1718750   0.6093750), wk =   0.0007324
        k(  333) = (   0.5468750   0.2031250   0.5781250), wk =   0.0007324
        k(  334) = (   0.5156250   0.2343750   0.5468750), wk =   0.0007324
        k(  335) = (   0.4843750   0.2656250   0.5156250), wk =   0.0007324
        k(  336) = (   0.4531250   0.2968750   0.4843750), wk =   0.0007324
        k(  337) = (   0.4218750   0.3281250   0.4531250), wk =   0.0007324
        k(  338) = (   0.3906250   0.3593750   0.4218750), wk =   0.0007324
        k(  339) = (  -0.0156250   0.8281250   0.0156250), wk =   0.0003662
        k(  340) = (  -0.0468750   0.8593750  -0.0156250), wk =   0.0007324
        k(  341) = (  -0.0781250   0.8906250  -0.0468750), wk =   0.0007324
        k(  342) = (   0.8906250  -0.0781250   0.9218750), wk =   0.0007324
        k(  343) = (   0.8593750  -0.0468750   0.8906250), wk =   0.0007324
        k(  344) = (   0.8281250  -0.0156250   0.8593750), wk =   0.0007324
        k(  345) = (   0.7968750   0.0156250   0.8281250), wk =   0.0007324
        k(  346) = (   0.7656250   0.0468750   0.7968750), wk =   0.0007324
        k(  347) = (   0.7343750   0.0781250   0.7656250), wk =   0.0007324
        k(  348) = (   0.7031250   0.1093750   0.7343750), wk =   0.0007324
        k(  349) = (   0.6718750   0.1406250   0.7031250), wk =   0.0007324
        k(  350) = (   0.6406250   0.1718750   0.6718750), wk =   0.0007324
        k(  351) = (   0.6093750   0.2031250   0.6406250), wk =   0.0007324
        k(  352) = (   0.5781250   0.2343750   0.6093750), wk =   0.0007324
        k(  353) = (   0.5468750   0.2656250   0.5781250), wk =   0.0007324
        k(  354) = (   0.5156250   0.2968750   0.5468750), wk =   0.0007324
        k(  355) = (   0.4843750   0.3281250   0.5156250), wk =   0.0007324
        k(  356) = (   0.4531250   0.3593750   0.4843750), wk =   0.0007324
        k(  357) = (   0.4218750   0.3906250   0.4531250), wk =   0.0007324
        k(  358) = (  -0.0156250   0.8906250   0.0156250), wk =   0.0003662
        k(  359) = (  -0.0468750   0.9218750  -0.0156250), wk =   0.0007324
        k(  360) = (   0.9218750  -0.0468750   0.9531250), wk =   0.0007324
        k(  361) = (   0.8906250  -0.0156250   0.9218750), wk =   0.0007324
        k(  362) = (   0.8593750   0.0156250   0.8906250), wk =   0.0007324
        k(  363) = (   0.8281250   0.0468750   0.8593750), wk =   0.0007324
        k(  364) = (   0.7968750   0.0781250   0.8281250), wk =   0.0007324
        k(  365) = (   0.7656250   0.1093750   0.7968750), wk =   0.0007324
        k(  366) = (   0.7343750   0.1406250   0.7656250), wk =   0.0007324
        k(  367) = (   0.7031250   0.1718750   0.7343750), wk =   0.0007324
        k(  368) = (   0.6718750   0.2031250   0.7031250), wk =   0.0007324
        k(  369) = (   0.6406250   0.2343750   0.6718750), wk =   0.0007324
        k(  370) = (   0.6093750   0.2656250   0.6406250), wk =   0.0007324
        k(  371) = (   0.5781250   0.2968750   0.6093750), wk =   0.0007324
        k(  372) = (   0.5468750   0.3281250   0.5781250), wk =   0.0007324
        k(  373) = (   0.5156250   0.3593750   0.5468750), wk =   0.0007324
        k(  374) = (   0.4843750   0.3906250   0.5156250), wk =   0.0007324
        k(  375) = (   0.4531250   0.4218750   0.4843750), wk =   0.0007324
        k(  376) = (  -0.0156250   0.9531250   0.0156250), wk =   0.0003662
        k(  377) = (   0.9531250  -0.0156250   0.9843750), wk =   0.0007324
        k(  378) = (   0.9218750   0.0156250   0.9531250), wk =   0.0007324
        k(  379) = (   0.8906250   0.0468750   0.9218750), wk =   0.0007324
        k(  380) = (   0.8593750   0.0781250   0.8906250), wk =   0.0007324
        k(  381) = (   0.8281250   0.1093750   0.8593750), wk =   0.0007324
        k(  382) = (   0.7968750   0.1406250   0.8281250), wk =   0.0007324
        k(  383) = (   0.7656250   0.1718750   0.7968750), wk =   0.0007324
        k(  384) = (   0.7343750   0.2031250   0.7656250), wk =   0.0007324
        k(  385) = (   0.7031250   0.2343750   0.7343750), wk =   0.0007324
        k(  386) = (   0.6718750   0.2656250   0.7031250), wk =   0.0007324
        k(  387) = (   0.6406250   0.2968750   0.6718750), wk =   0.0007324
        k(  388) = (   0.6093750   0.3281250   0.6406250), wk =   0.0007324
        k(  389) = (   0.5781250   0.3593750   0.6093750), wk =   0.0007324
        k(  390) = (   0.5468750   0.3906250   0.5781250), wk =   0.0007324
        k(  391) = (   0.5156250   0.4218750   0.5468750), wk =   0.0007324
        k(  392) = (   0.4843750   0.4531250   0.5156250), wk =   0.0007324
        k(  393) = (  -0.0156250  -0.9843750   0.0156250), wk =   0.0003662
        k(  394) = (  -0.0468750  -0.9531250  -0.0156250), wk =   0.0007324
        k(  395) = (  -0.0781250  -0.9218750  -0.0468750), wk =   0.0007324
        k(  396) = (  -0.1093750  -0.8906250  -0.0781250), wk =   0.0007324
        k(  397) = (  -0.1406250  -0.8593750  -0.1093750), wk =   0.0007324
        k(  398) = (  -0.1718750  -0.8281250  -0.1406250), wk =   0.0007324
        k(  399) = (  -0.2031250  -0.7968750  -0.1718750), wk =   0.0007324
        k(  400) = (  -0.2343750  -0.7656250  -0.2031250), wk =   0.0007324
        k(  401) = (  -0.2656250  -0.7343750  -0.2343750), wk =   0.0007324
        k(  402) = (  -0.2968750  -0.7031250  -0.2656250), wk =   0.0007324
        k(  403) = (  -0.3281250  -0.6718750  -0.2968750), wk =   0.0007324
        k(  404) = (  -0.3593750  -0.6406250  -0.3281250), wk =   0.0007324
        k(  405) = (  -0.3906250  -0.6093750  -0.3593750), wk =   0.0007324
        k(  406) = (  -0.4218750  -0.5781250  -0.3906250), wk =   0.0007324
        k(  407) = (  -0.4531250  -0.5468750  -0.4218750), wk =   0.0007324
        k(  408) = (  -0.0156250  -0.9218750   0.0156250), wk =   0.0003662
        k(  409) = (  -0.0468750  -0.8906250  -0.0156250), wk =   0.0007324
        k(  410) = (  -0.0781250  -0.8593750  -0.0468750), wk =   0.0007324
        k(  411) = (  -0.1093750  -0.8281250  -0.0781250), wk =   0.0007324
        k(  412) = (  -0.1406250  -0.7968750  -0.1093750), wk =   0.0007324
        k(  413) = (  -0.1718750  -0.7656250  -0.1406250), wk =   0.0007324
        k(  414) = (  -0.2031250  -0.7343750  -0.1718750), wk =   0.0007324
        k(  415) = (  -0.2343750  -0.7031250  -0.2031250), wk =   0.0007324
        k(  416) = (  -0.2656250  -0.6718750  -0.2343750), wk =   0.0007324
        k(  417) = (  -0.2968750  -0.6406250  -0.2656250), wk =   0.0007324
        k(  418) = (  -0.3281250  -0.6093750  -0.2968750), wk =   0.0007324
        k(  419) = (  -0.3593750  -0.5781250  -0.3281250), wk =   0.0007324
        k(  420) = (  -0.3906250  -0.5468750  -0.3593750), wk =   0.0007324
        k(  421) = (  -0.4218750  -0.5156250  -0.3906250), wk =   0.0007324
        k(  422) = (  -0.0156250  -0.8593750   0.0156250), wk =   0.0003662
        k(  423) = (  -0.0468750  -0.8281250  -0.0156250), wk =   0.0007324
        k(  424) = (  -0.0781250  -0.7968750  -0.0468750), wk =   0.0007324
        k(  425) = (  -0.1093750  -0.7656250  -0.0781250), wk =   0.0007324
        k(  426) = (  -0.1406250  -0.7343750  -0.1093750), wk =   0.0007324
        k(  427) = (  -0.1718750  -0.7031250  -0.1406250), wk =   0.0007324
        k(  428) = (  -0.2031250  -0.6718750  -0.1718750), wk =   0.0007324
        k(  429) = (  -0.2343750  -0.6406250  -0.2031250), wk =   0.0007324
        k(  430) = (  -0.2656250  -0.6093750  -0.2343750), wk =   0.0007324
        k(  431) = (  -0.2968750  -0.5781250  -0.2656250), wk =   0.0007324
        k(  432) = (  -0.3281250  -0.5468750  -0.2968750), wk =   0.0007324
        k(  433) = (  -0.3593750  -0.5156250  -0.3281250), wk =   0.0007324
        k(  434) = (  -0.3906250  -0.4843750  -0.3593750), wk =   0.0007324
        k(  435) = (  -0.0156250  -0.7968750   0.0156250), wk =   0.0003662
        k(  436) = (  -0.0468750  -0.7656250  -0.0156250), wk =   0.0007324
        k(  437) = (  -0.0781250  -0.7343750  -0.0468750), wk =   0.0007324
        k(  438) = (  -0.1093750  -0.7031250  -0.0781250), wk =   0.0007324
        k(  439) = (  -0.1406250  -0.6718750  -0.1093750), wk =   0.0007324
        k(  440) = (  -0.1718750  -0.6406250  -0.1406250), wk =   0.0007324
        k(  441) = (  -0.2031250  -0.6093750  -0.1718750), wk =   0.0007324
        k(  442) = (  -0.2343750  -0.5781250  -0.2031250), wk =   0.0007324
        k(  443) = (  -0.2656250  -0.5468750  -0.2343750), wk =   0.0007324
        k(  444) = (  -0.2968750  -0.5156250  -0.2656250), wk =   0.0007324
        k(  445) = (  -0.3281250  -0.4843750  -0.2968750), wk =   0.0007324
        k(  446) = (  -0.3593750  -0.4531250  -0.3281250), wk =   0.0007324
        k(  447) = (  -0.0156250  -0.7343750   0.0156250), wk =   0.0003662
        k(  448) = (  -0.0468750  -0.7031250  -0.0156250), wk =   0.0007324
        k(  449) = (  -0.0781250  -0.6718750  -0.0468750), wk =   0.0007324
        k(  450) = (  -0.1093750  -0.6406250  -0.0781250), wk =   0.0007324
        k(  451) = (  -0.1406250  -0.6093750  -0.1093750), wk =   0.0007324
        k(  452) = (  -0.1718750  -0.5781250  -0.1406250), wk =   0.0007324
        k(  453) = (  -0.2031250  -0.5468750  -0.1718750), wk =   0.0007324
        k(  454) = (  -0.2343750  -0.5156250  -0.2031250), wk =   0.0007324
        k(  455) = (  -0.2656250  -0.4843750  -0.2343750), wk =   0.0007324
        k(  456) = (  -0.2968750  -0.4531250  -0.2656250), wk =   0.0007324
        k(  457) = (  -0.3281250  -0.4218750  -0.2968750), wk =   0.0007324
        k(  458) = (  -0.0156250  -0.6718750   0.0156250), wk =   0.0003662
        k(  459) = (  -0.0468750  -0.6406250  -0.0156250), wk =   0.0007324
        k(  460) = (  -0.0781250  -0.6093750  -0.0468750), wk =   0.0007324
        k(  461) = (  -0.1093750  -0.5781250  -0.0781250), wk =   0.0007324
        k(  462) = (  -0.1406250  -0.5468750  -0.1093750), wk =   0.0007324
        k(  463) = (  -0.1718750  -0.5156250  -0.1406250), wk =   0.0007324
        k(  464) = (  -0.2031250  -0.4843750  -0.1718750), wk =   0.0007324
        k(  465) = (  -0.2343750  -0.4531250  -0.2031250), wk =   0.0007324
        k(  466) = (  -0.2656250  -0.4218750  -0.2343750), wk =   0.0007324
        k(  467) = (  -0.2968750  -0.3906250  -0.2656250), wk =   0.0007324
        k(  468) = (  -0.0156250  -0.6093750   0.0156250), wk =   0.0003662
        k(  469) = (  -0.0468750  -0.5781250  -0.0156250), wk =   0.0007324
        k(  470) = (  -0.0781250  -0.5468750  -0.0468750), wk =   0.0007324
        k(  471) = (  -0.1093750  -0.5156250  -0.0781250), wk =   0.0007324
        k(  472) = (  -0.1406250  -0.4843750  -0.1093750), wk =   0.0007324
        k(  473) = (  -0.1718750  -0.4531250  -0.1406250), wk =   0.0007324
        k(  474) = (  -0.2031250  -0.4218750  -0.1718750), wk =   0.0007324
        k(  475) = (  -0.2343750  -0.3906250  -0.2031250), wk =   0.0007324
        k(  476) = (  -0.2656250  -0.3593750  -0.2343750), wk =   0.0007324
        k(  477) = (  -0.0156250  -0.5468750   0.0156250), wk =   0.0003662
        k(  478) = (  -0.0468750  -0.5156250  -0.0156250), wk =   0.0007324
        k(  479) = (  -0.0781250  -0.4843750  -0.0468750), wk =   0.0007324
        k(  480) = (  -0.1093750  -0.4531250  -0.0781250), wk =   0.0007324
        k(  481) = (  -0.1406250  -0.4218750  -0.1093750), wk =   0.0007324
        k(  482) = (  -0.1718750  -0.3906250  -0.1406250), wk =   0.0007324
        k(  483) = (  -0.2031250  -0.3593750  -0.1718750), wk =   0.0007324
        k(  484) = (  -0.2343750  -0.3281250  -0.2031250), wk =   0.0007324
        k(  485) = (  -0.0156250  -0.4843750   0.0156250), wk =   0.0003662
        k(  486) = (  -0.0468750  -0.4531250  -0.0156250), wk =   0.0007324
        k(  487) = (  -0.0781250  -0.4218750  -0.0468750), wk =   0.0007324
        k(  488) = (  -0.1093750  -0.3906250  -0.0781250), wk =   0.0007324
        k(  489) = (  -0.1406250  -0.3593750  -0.1093750), wk =   0.0007324
        k(  490) = (  -0.1718750  -0.3281250  -0.1406250), wk =   0.0007324
        k(  491) = (  -0.2031250  -0.2968750  -0.1718750), wk =   0.0007324
        k(  492) = (  -0.0156250  -0.4218750   0.0156250), wk =   0.0003662
        k(  493) = (  -0.0468750  -0.3906250  -0.0156250), wk =   0.0007324
        k(  494) = (  -0.0781250  -0.3593750  -0.0468750), wk =   0.0007324
        k(  495) = (  -0.1093750  -0.3281250  -0.0781250), wk =   0.0007324
        k(  496) = (  -0.1406250  -0.2968750  -0.1093750), wk =   0.0007324
        k(  497) = (  -0.1718750  -0.2656250  -0.1406250), wk =   0.0007324
        k(  498) = (  -0.0156250  -0.3593750   0.0156250), wk =   0.0003662
        k(  499) = (  -0.0468750  -0.3281250  -0.0156250), wk =   0.0007324
        k(  500) = (  -0.0781250  -0.2968750  -0.0468750), wk =   0.0007324
        k(  501) = (  -0.1093750  -0.2656250  -0.0781250), wk =   0.0007324
        k(  502) = (  -0.1406250  -0.2343750  -0.1093750), wk =   0.0007324
        k(  503) = (  -0.0156250  -0.2968750   0.0156250), wk =   0.0003662
        k(  504) = (  -0.0468750  -0.2656250  -0.0156250), wk =   0.0007324
        k(  505) = (  -0.0781250  -0.2343750  -0.0468750), wk =   0.0007324
        k(  506) = (  -0.1093750  -0.2031250  -0.0781250), wk =   0.0007324
        k(  507) = (  -0.0156250  -0.2343750   0.0156250), wk =   0.0003662
        k(  508) = (  -0.0468750  -0.2031250  -0.0156250), wk =   0.0007324
        k(  509) = (  -0.0781250  -0.1718750  -0.0468750), wk =   0.0007324
        k(  510) = (  -0.0156250  -0.1718750   0.0156250), wk =   0.0003662
        k(  511) = (  -0.0468750  -0.1406250  -0.0156250), wk =   0.0007324
        k(  512) = (  -0.0156250  -0.1093750   0.0156250), wk =   0.0003662
        k(  513) = (  -0.0468750   0.0468750   0.0468750), wk =   0.0001221
        k(  514) = (  -0.0781250   0.0781250   0.0156250), wk =   0.0003662
        k(  515) = (  -0.1093750   0.1093750  -0.0156250), wk =   0.0003662
        k(  516) = (  -0.1406250   0.1406250  -0.0468750), wk =   0.0003662
        k(  517) = (  -0.1718750   0.1718750  -0.0781250), wk =   0.0003662
        k(  518) = (  -0.2031250   0.2031250  -0.1093750), wk =   0.0003662
        k(  519) = (  -0.2343750   0.2343750  -0.1406250), wk =   0.0003662
        k(  520) = (  -0.2656250   0.2656250  -0.1718750), wk =   0.0003662
        k(  521) = (  -0.2968750   0.2968750  -0.2031250), wk =   0.0003662
        k(  522) = (  -0.3281250   0.3281250  -0.2343750), wk =   0.0003662
        k(  523) = (  -0.3593750   0.3593750  -0.2656250), wk =   0.0003662
        k(  524) = (  -0.3906250   0.3906250  -0.2968750), wk =   0.0003662
        k(  525) = (  -0.4218750   0.4218750  -0.3281250), wk =   0.0003662
        k(  526) = (  -0.4531250   0.4531250  -0.3593750), wk =   0.0003662
        k(  527) = (  -0.4843750   0.4843750  -0.3906250), wk =   0.0003662
        k(  528) = (   0.4843750  -0.4843750   0.5781250), wk =   0.0003662
        k(  529) = (   0.4531250  -0.4531250   0.5468750), wk =   0.0003662
        k(  530) = (   0.4218750  -0.4218750   0.5156250), wk =   0.0003662
        k(  531) = (   0.3906250  -0.3906250   0.4843750), wk =   0.0003662
        k(  532) = (   0.3593750  -0.3593750   0.4531250), wk =   0.0003662
        k(  533) = (   0.3281250  -0.3281250   0.4218750), wk =   0.0003662
        k(  534) = (   0.2968750  -0.2968750   0.3906250), wk =   0.0003662
        k(  535) = (   0.2656250  -0.2656250   0.3593750), wk =   0.0003662
        k(  536) = (   0.2343750  -0.2343750   0.3281250), wk =   0.0003662
        k(  537) = (   0.2031250  -0.2031250   0.2968750), wk =   0.0003662
        k(  538) = (   0.1718750  -0.1718750   0.2656250), wk =   0.0003662
        k(  539) = (   0.1406250  -0.1406250   0.2343750), wk =   0.0003662
        k(  540) = (   0.1093750  -0.1093750   0.2031250), wk =   0.0003662
        k(  541) = (   0.0781250  -0.0781250   0.1718750), wk =   0.0003662
        k(  542) = (   0.0468750  -0.0468750   0.1406250), wk =   0.0003662
        k(  543) = (  -0.0468750   0.1093750   0.0468750), wk =   0.0003662
        k(  544) = (  -0.0781250   0.1406250   0.0156250), wk =   0.0007324
        k(  545) = (  -0.1093750   0.1718750  -0.0156250), wk =   0.0007324
        k(  546) = (  -0.1406250   0.2031250  -0.0468750), wk =   0.0007324
        k(  547) = (  -0.1718750   0.2343750  -0.0781250), wk =   0.0007324
        k(  548) = (  -0.2031250   0.2656250  -0.1093750), wk =   0.0007324
        k(  549) = (  -0.2343750   0.2968750  -0.1406250), wk =   0.0007324
        k(  550) = (  -0.2656250   0.3281250  -0.1718750), wk =   0.0007324
        k(  551) = (  -0.2968750   0.3593750  -0.2031250), wk =   0.0007324
        k(  552) = (  -0.3281250   0.3906250  -0.2343750), wk =   0.0007324
        k(  553) = (  -0.3593750   0.4218750  -0.2656250), wk =   0.0007324
        k(  554) = (  -0.3906250   0.4531250  -0.2968750), wk =   0.0007324
        k(  555) = (  -0.4218750   0.4843750  -0.3281250), wk =   0.0007324
        k(  556) = (  -0.4531250   0.5156250  -0.3593750), wk =   0.0007324
        k(  557) = (   0.5156250  -0.4531250   0.6093750), wk =   0.0007324
        k(  558) = (   0.4843750  -0.4218750   0.5781250), wk =   0.0007324
        k(  559) = (   0.4531250  -0.3906250   0.5468750), wk =   0.0007324
        k(  560) = (   0.4218750  -0.3593750   0.5156250), wk =   0.0007324
        k(  561) = (   0.3906250  -0.3281250   0.4843750), wk =   0.0007324
        k(  562) = (   0.3593750  -0.2968750   0.4531250), wk =   0.0007324
        k(  563) = (   0.3281250  -0.2656250   0.4218750), wk =   0.0007324
        k(  564) = (   0.2968750  -0.2343750   0.3906250), wk =   0.0007324
        k(  565) = (   0.2656250  -0.2031250   0.3593750), wk =   0.0007324
        k(  566) = (   0.2343750  -0.1718750   0.3281250), wk =   0.0007324
        k(  567) = (   0.2031250  -0.1406250   0.2968750), wk =   0.0007324
        k(  568) = (   0.1718750  -0.1093750   0.2656250), wk =   0.0007324
        k(  569) = (   0.1406250  -0.0781250   0.2343750), wk =   0.0007324
        k(  570) = (   0.1093750  -0.0468750   0.2031250), wk =   0.0007324
        k(  571) = (   0.0781250  -0.0156250   0.1718750), wk =   0.0007324
        k(  572) = (  -0.0468750   0.1718750   0.0468750), wk =   0.0003662
        k(  573) = (  -0.0781250   0.2031250   0.0156250), wk =   0.0007324
        k(  574) = (  -0.1093750   0.2343750  -0.0156250), wk =   0.0007324
        k(  575) = (  -0.1406250   0.2656250  -0.0468750), wk =   0.0007324
        k(  576) = (  -0.1718750   0.2968750  -0.0781250), wk =   0.0007324
        k(  577) = (  -0.2031250   0.3281250  -0.1093750), wk =   0.0007324
        k(  578) = (  -0.2343750   0.3593750  -0.1406250), wk =   0.0007324
        k(  579) = (  -0.2656250   0.3906250  -0.1718750), wk =   0.0007324
        k(  580) = (  -0.2968750   0.4218750  -0.2031250), wk =   0.0007324
        k(  581) = (  -0.3281250   0.4531250  -0.2343750), wk =   0.0007324
        k(  582) = (  -0.3593750   0.4843750  -0.2656250), wk =   0.0007324
        k(  583) = (  -0.3906250   0.5156250  -0.2968750), wk =   0.0007324
        k(  584) = (  -0.4218750   0.5468750  -0.3281250), wk =   0.0007324
        k(  585) = (   0.5468750  -0.4218750   0.6406250), wk =   0.0007324
        k(  586) = (   0.5156250  -0.3906250   0.6093750), wk =   0.0007324
        k(  587) = (   0.4843750  -0.3593750   0.5781250), wk =   0.0007324
        k(  588) = (   0.4531250  -0.3281250   0.5468750), wk =   0.0007324
        k(  589) = (   0.4218750  -0.2968750   0.5156250), wk =   0.0007324
        k(  590) = (   0.3906250  -0.2656250   0.4843750), wk =   0.0007324
        k(  591) = (   0.3593750  -0.2343750   0.4531250), wk =   0.0007324
        k(  592) = (   0.3281250  -0.2031250   0.4218750), wk =   0.0007324
        k(  593) = (   0.2968750  -0.1718750   0.3906250), wk =   0.0007324
        k(  594) = (   0.2656250  -0.1406250   0.3593750), wk =   0.0007324
        k(  595) = (   0.2343750  -0.1093750   0.3281250), wk =   0.0007324
        k(  596) = (   0.2031250  -0.0781250   0.2968750), wk =   0.0007324
        k(  597) = (   0.1718750  -0.0468750   0.2656250), wk =   0.0007324
        k(  598) = (   0.1406250  -0.0156250   0.2343750), wk =   0.0007324
        k(  599) = (   0.1093750   0.0156250   0.2031250), wk =   0.0007324
        k(  600) = (  -0.0468750   0.2343750   0.0468750), wk =   0.0003662
        k(  601) = (  -0.0781250   0.2656250   0.0156250), wk =   0.0007324
        k(  602) = (  -0.1093750   0.2968750  -0.0156250), wk =   0.0007324
        k(  603) = (  -0.1406250   0.3281250  -0.0468750), wk =   0.0007324
        k(  604) = (  -0.1718750   0.3593750  -0.0781250), wk =   0.0007324
        k(  605) = (  -0.2031250   0.3906250  -0.1093750), wk =   0.0007324
        k(  606) = (  -0.2343750   0.4218750  -0.1406250), wk =   0.0007324
        k(  607) = (  -0.2656250   0.4531250  -0.1718750), wk =   0.0007324
        k(  608) = (  -0.2968750   0.4843750  -0.2031250), wk =   0.0007324
        k(  609) = (  -0.3281250   0.5156250  -0.2343750), wk =   0.0007324
        k(  610) = (  -0.3593750   0.5468750  -0.2656250), wk =   0.0007324
        k(  611) = (  -0.3906250   0.5781250  -0.2968750), wk =   0.0007324
        k(  612) = (   0.5781250  -0.3906250   0.6718750), wk =   0.0007324
        k(  613) = (   0.5468750  -0.3593750   0.6406250), wk =   0.0007324
        k(  614) = (   0.5156250  -0.3281250   0.6093750), wk =   0.0007324
        k(  615) = (   0.4843750  -0.2968750   0.5781250), wk =   0.0007324
        k(  616) = (   0.4531250  -0.2656250   0.5468750), wk =   0.0007324
        k(  617) = (   0.4218750  -0.2343750   0.5156250), wk =   0.0007324
        k(  618) = (   0.3906250  -0.2031250   0.4843750), wk =   0.0007324
        k(  619) = (   0.3593750  -0.1718750   0.4531250), wk =   0.0007324
        k(  620) = (   0.3281250  -0.1406250   0.4218750), wk =   0.0007324
        k(  621) = (   0.2968750  -0.1093750   0.3906250), wk =   0.0007324
        k(  622) = (   0.2656250  -0.0781250   0.3593750), wk =   0.0007324
        k(  623) = (   0.2343750  -0.0468750   0.3281250), wk =   0.0007324
        k(  624) = (   0.2031250  -0.0156250   0.2968750), wk =   0.0007324
        k(  625) = (   0.1718750   0.0156250   0.2656250), wk =   0.0007324
        k(  626) = (   0.1406250   0.0468750   0.2343750), wk =   0.0007324
        k(  627) = (  -0.0468750   0.2968750   0.0468750), wk =   0.0003662
        k(  628) = (  -0.0781250   0.3281250   0.0156250), wk =   0.0007324
        k(  629) = (  -0.1093750   0.3593750  -0.0156250), wk =   0.0007324
        k(  630) = (  -0.1406250   0.3906250  -0.0468750), wk =   0.0007324
        k(  631) = (  -0.1718750   0.4218750  -0.0781250), wk =   0.0007324
        k(  632) = (  -0.2031250   0.4531250  -0.1093750), wk =   0.0007324
        k(  633) = (  -0.2343750   0.4843750  -0.1406250), wk =   0.0007324
        k(  634) = (  -0.2656250   0.5156250  -0.1718750), wk =   0.0007324
        k(  635) = (  -0.2968750   0.5468750  -0.2031250), wk =   0.0007324
        k(  636) = (  -0.3281250   0.5781250  -0.2343750), wk =   0.0007324
        k(  637) = (  -0.3593750   0.6093750  -0.2656250), wk =   0.0007324
        k(  638) = (   0.6093750  -0.3593750   0.7031250), wk =   0.0007324
        k(  639) = (   0.5781250  -0.3281250   0.6718750), wk =   0.0007324
        k(  640) = (   0.5468750  -0.2968750   0.6406250), wk =   0.0007324
        k(  641) = (   0.5156250  -0.2656250   0.6093750), wk =   0.0007324
        k(  642) = (   0.4843750  -0.2343750   0.5781250), wk =   0.0007324
        k(  643) = (   0.4531250  -0.2031250   0.5468750), wk =   0.0007324
        k(  644) = (   0.4218750  -0.1718750   0.5156250), wk =   0.0007324
        k(  645) = (   0.3906250  -0.1406250   0.4843750), wk =   0.0007324
        k(  646) = (   0.3593750  -0.1093750   0.4531250), wk =   0.0007324
        k(  647) = (   0.3281250  -0.0781250   0.4218750), wk =   0.0007324
        k(  648) = (   0.2968750  -0.0468750   0.3906250), wk =   0.0007324
        k(  649) = (   0.2656250  -0.0156250   0.3593750), wk =   0.0007324
        k(  650) = (   0.2343750   0.0156250   0.3281250), wk =   0.0007324
        k(  651) = (   0.2031250   0.0468750   0.2968750), wk =   0.0007324
        k(  652) = (   0.1718750   0.0781250   0.2656250), wk =   0.0007324
        k(  653) = (  -0.0468750   0.3593750   0.0468750), wk =   0.0003662
        k(  654) = (  -0.0781250   0.3906250   0.0156250), wk =   0.0007324
        k(  655) = (  -0.1093750   0.4218750  -0.0156250), wk =   0.0007324
        k(  656) = (  -0.1406250   0.4531250  -0.0468750), wk =   0.0007324
        k(  657) = (  -0.1718750   0.4843750  -0.0781250), wk =   0.0007324
        k(  658) = (  -0.2031250   0.5156250  -0.1093750), wk =   0.0007324
        k(  659) = (  -0.2343750   0.5468750  -0.1406250), wk =   0.0007324
        k(  660) = (  -0.2656250   0.5781250  -0.1718750), wk =   0.0007324
        k(  661) = (  -0.2968750   0.6093750  -0.2031250), wk =   0.0007324
        k(  662) = (  -0.3281250   0.6406250  -0.2343750), wk =   0.0007324
        k(  663) = (   0.6406250  -0.3281250   0.7343750), wk =   0.0007324
        k(  664) = (   0.6093750  -0.2968750   0.7031250), wk =   0.0007324
        k(  665) = (   0.5781250  -0.2656250   0.6718750), wk =   0.0007324
        k(  666) = (   0.5468750  -0.2343750   0.6406250), wk =   0.0007324
        k(  667) = (   0.5156250  -0.2031250   0.6093750), wk =   0.0007324
        k(  668) = (   0.4843750  -0.1718750   0.5781250), wk =   0.0007324
        k(  669) = (   0.4531250  -0.1406250   0.5468750), wk =   0.0007324
        k(  670) = (   0.4218750  -0.1093750   0.5156250), wk =   0.0007324
        k(  671) = (   0.3906250  -0.0781250   0.4843750), wk =   0.0007324
        k(  672) = (   0.3593750  -0.0468750   0.4531250), wk =   0.0007324
        k(  673) = (   0.3281250  -0.0156250   0.4218750), wk =   0.0007324
        k(  674) = (   0.2968750   0.0156250   0.3906250), wk =   0.0007324
        k(  675) = (   0.2656250   0.0468750   0.3593750), wk =   0.0007324
        k(  676) = (   0.2343750   0.0781250   0.3281250), wk =   0.0007324
        k(  677) = (   0.2031250   0.1093750   0.2968750), wk =   0.0007324
        k(  678) = (  -0.0468750   0.4218750   0.0468750), wk =   0.0003662
        k(  679) = (  -0.0781250   0.4531250   0.0156250), wk =   0.0007324
        k(  680) = (  -0.1093750   0.4843750  -0.0156250), wk =   0.0007324
        k(  681) = (  -0.1406250   0.5156250  -0.0468750), wk =   0.0007324
        k(  682) = (  -0.1718750   0.5468750  -0.0781250), wk =   0.0007324
        k(  683) = (  -0.2031250   0.5781250  -0.1093750), wk =   0.0007324
        k(  684) = (  -0.2343750   0.6093750  -0.1406250), wk =   0.0007324
        k(  685) = (  -0.2656250   0.6406250  -0.1718750), wk =   0.0007324
        k(  686) = (  -0.2968750   0.6718750  -0.2031250), wk =   0.0007324
        k(  687) = (   0.6718750  -0.2968750   0.7656250), wk =   0.0007324
[...]
    15.7093  16.1780  17.4568  18.6255  19.3763  20.4626  24.3405  26.3399
    26.9484  28.6066  29.8629  30.0828  31.4091  32.9160  33.7162  34.3761
    34.7054  36.1570  37.6148  38.8458  39.3935  40.0271

     occupation numbers 
     1.0000   1.0000   1.0000   1.0000   0.0000   0.0000   0.0000   0.0000
     0.0000   0.0000   0.0000   0.0000   0.0000   0.0000   0.0000   0.0000
     0.0000   0.0000   0.0000   0.0000   0.0000   0.0000   0.0000   0.0000
     0.0000   0.0000   0.0000   0.0000   0.0000   0.0000

          k =-0.4844 0.4844 0.3594 (   927 PWs)   bands (ev):

    -3.3580  -0.3151   4.7902   5.2190   8.4346   9.8011   9.8974  14.4091
    15.5946  16.1719  17.9642  18.1972  19.5010  20.5361  24.5450  26.3369
    27.4967  28.2210  29.3775  29.8451  31.8481  32.2927  33.5612  34.4416
    34.8105  36.2293  38.0210  38.1022  38.7620  40.2840

     occupation numbers 
     1.0000   1.0000   1.0000   1.0000   0.0000   0.0000   0.0000   0.0000
     0.0000   0.0000   0.0000   0.0000   0.0000   0.0000   0.0000   0.0000
     0.0000   0.0000   0.0000   0.0000   0.0000   0.0000   0.0000   0.0000
     0.0000   0.0000   0.0000   0.0000   0.0000   0.0000

          k = 0.4844-0.4844 1.3281 (   925 PWs)   bands (ev):

    -3.2459  -0.3666   4.4000   5.1269   8.6692   9.8194  10.0890  14.5889
    15.5001  15.9119  17.5593  19.0078  19.6370  20.6514  24.6608  26.4139
    27.8388  27.9039  28.8834  29.5052  31.7467  32.3443  33.2726  34.5486
    34.8007  36.2870  37.5162  37.5873  39.1657  40.4712

     occupation numbers 
     1.0000   1.0000   1.0000   1.0000   0.0000   0.0000   0.0000   0.0000
     0.0000   0.0000   0.0000   0.0000   0.0000   0.0000   0.0000   0.0000
     0.0000   0.0000   0.0000   0.0000   0.0000   0.0000   0.0000   0.0000
     0.0000   0.0000   0.0000   0.0000   0.0000   0.0000

          k = 0.4531-0.4531 1.2969 (   930 PWs)   bands (ev):

    -3.1197  -0.3950   3.9772   4.9985   8.7631  10.0092  10.3668  14.7683
    15.4234  15.4266  17.4564  19.7816  19.8598  20.8095  24.6697  26.5730
    27.4802  27.8164  28.6445  29.0965  31.4426  32.7551  33.0643  34.6196
    34.6231  35.9604  36.8977  37.4754  40.0673  40.2498

     occupation numbers 
     1.0000   1.0000   1.0000   1.0000   0.0000   0.0000   0.0000   0.0000
     0.0000   0.0000   0.0000   0.0000   0.0000   0.0000   0.0000   0.0000
     0.0000   0.0000   0.0000   0.0000   0.0000   0.0000   0.0000   0.0000
     0.0000   0.0000   0.0000   0.0000   0.0000   0.0000

          k = 0.4219-0.4219 1.2656 (   932 PWs)   bands (ev):

    -2.9812  -0.4034   3.5533   4.8466   8.6830  10.3974  10.7177  14.5921
    15.1227  15.3749  17.6266  19.9309  20.5588  21.1472  24.5978  26.6795
    27.2236  27.2491  28.5292  28.6893  31.5354  32.5421  33.4286  34.1839
    34.5002  35.6439  36.4215  37.7903  39.6700  40.7207

     occupation numbers 
     1.0000   1.0000   1.0000   1.0000   0.0000   0.0000   0.0000   0.0000
     0.0000   0.0000   0.0000   0.0000   0.0000   0.0000   0.0000   0.0000
     0.0000   0.0000   0.0000   0.0000   0.0000   0.0000   0.0000   0.0000
     0.0000   0.0000   0.0000   0.0000   0.0000   0.0000

          k =-0.4219 0.4844 0.4219 (   924 PWs)   bands (ev):

    -3.3920  -0.3344   5.1636   5.1765   8.2044   9.7369   9.8712  14.2748
    15.7957  16.5393  17.5437  18.4898  19.0220  20.3721  24.6240  26.6421
    27.1910  28.2493  29.6809  29.8874  31.6676  32.9381  33.5029  34.4286
    34.6752  35.9350  37.6504  38.8894  39.2269  40.0725

     occupation numbers 
     1.0000   1.0000   1.0000   1.0000   0.0000   0.0000   0.0000   0.0000
     0.0000   0.0000   0.0000   0.0000   0.0000   0.0000   0.0000   0.0000
     0.0000   0.0000   0.0000   0.0000   0.0000   0.0000   0.0000   0.0000
     0.0000   0.0000   0.0000   0.0000   0.0000   0.0000

          k =-0.4531 0.5156 0.3906 (   926 PWs)   bands (ev):

    -3.3137  -0.4041   4.9240   5.1702   8.3596   9.7149   9.9351  14.3442
    15.7180  16.6474  17.9677  18.0771  19.0260  20.4224  24.8779  26.7121
    27.6321  27.8764  29.2684  29.6931  32.0240  32.5105  33.3204  34.4755
    34.8188  35.9051  37.9897  38.2810  38.8386  40.0244

     occupation numbers 
     1.0000   1.0000   1.0000   1.0000   0.0000   0.0000   0.0000   0.0000
     0.0000   0.0000   0.0000   0.0000   0.0000   0.0000   0.0000   0.0000
     0.0000   0.0000   0.0000   0.0000   0.0000   0.0000   0.0000   0.0000
     0.0000   0.0000   0.0000   0.0000   0.0000   0.0000

          k = 0.5156-0.4531 1.3594 (   927 PWs)   bands (ev):

    -3.2211  -0.4475   4.5778   5.1049   8.5996   9.6911  10.0952  14.4926
    15.6124  16.3770  17.6357  18.7348  19.2101  20.5301  25.0557  26.7593
    27.4850  28.0635  28.7771  29.4365  32.0070  32.4357  33.0599  34.5189
    34.9056  36.0230  37.5827  37.9800  38.8797  39.9265

     occupation numbers 
     1.0000   1.0000   1.0000   1.0000   0.0000   0.0000   0.0000   0.0000
     0.0000   0.0000   0.0000   0.0000   0.0000   0.0000   0.0000   0.0000
     0.0000   0.0000   0.0000   0.0000   0.0000   0.0000   0.0000   0.0000
     0.0000   0.0000   0.0000   0.0000   0.0000   0.0000

          k = 0.4844-0.4219 1.3281 (   929 PWs)   bands (ev):

    -3.1159  -0.4653   4.1804   4.9914   8.7857   9.7431  10.3697  14.6612
    15.3705  16.0243  17.5366  19.1249  19.7732  20.6928  25.1234  26.7655
    27.2455  28.0309  28.4695  29.1496  31.6788  32.6361  32.9611  34.5896
    34.7967  36.0199  37.1987  37.3802  39.6495  39.8169

     occupation numbers 
     1.0000   1.0000   1.0000   1.0000   0.0000   0.0000   0.0000   0.0000
     0.0000   0.0000   0.0000   0.0000   0.0000   0.0000   0.0000   0.0000
     0.0000   0.0000   0.0000   0.0000   0.0000   0.0000   0.0000   0.0000
     0.0000   0.0000   0.0000   0.0000   0.0000   0.0000

          k = 0.4531-0.3906 1.2969 (   929 PWs)   bands (ev):

    -2.9993  -0.4597   3.7681   4.8459   8.7854   9.9973  10.7381  14.6029
    15.0218  15.9274  17.6341  19.3063  20.4086  21.0452  25.0908  26.5038
    27.3076  27.5398  28.2526  28.9022  31.7040  32.3220  33.3126  34.3362
    34.6752  35.8765  36.7022  37.4491  39.5734  40.5346

     occupation numbers 
     1.0000   1.0000   1.0000   1.0000   0.0000   0.0000   0.0000   0.0000
     0.0000   0.0000   0.0000   0.0000   0.0000   0.0000   0.0000   0.0000
     0.0000   0.0000   0.0000   0.0000   0.0000   0.0000   0.0000   0.0000
     0.0000   0.0000   0.0000   0.0000   0.0000   0.0000

          k =-0.4219 0.5469 0.4219 (   925 PWs)   bands (ev):

    -3.2551  -0.4665   4.8801   5.0922   8.4186   9.6842   9.9953  14.3539
    15.6688  17.0711  17.9386  17.9867  18.7791  20.4634  25.1873  26.9469
    27.4213  27.9349  29.0165  29.4645  32.2967  32.4671  33.0056  34.6077
    34.8765  35.7341  38.0239  38.3705  38.3934  40.2329

     occupation numbers 
     1.0000   1.0000   1.0000   1.0000   0.0000   0.0000   0.0000   0.0000
     0.0000   0.0000   0.0000   0.0000   0.0000   0.0000   0.0000   0.0000
     0.0000   0.0000   0.0000   0.0000   0.0000   0.0000   0.0000   0.0000
     0.0000   0.0000   0.0000   0.0000   0.0000   0.0000

          k = 0.5469-0.4219 1.3906 (   926 PWs)   bands (ev):

    -3.1839  -0.5011   4.6226   5.0455   8.5891   9.6590  10.1305  14.4453
    15.5812  16.7950  17.8873  18.2262  19.0527  20.5630  25.4310  26.9380
    27.1551  28.2252  28.6158  29.2420  32.1765  32.6122  32.7495  34.6169
    34.9855  35.7786  37.5806  38.0022  38.8193  39.8682

     occupation numbers 
     1.0000   1.0000   1.0000   1.0000   0.0000   0.0000   0.0000   0.0000
     0.0000   0.0000   0.0000   0.0000   0.0000   0.0000   0.0000   0.0000
     0.0000   0.0000   0.0000   0.0000   0.0000   0.0000   0.0000   0.0000
     0.0000   0.0000   0.0000   0.0000   0.0000   0.0000

          k = 0.5156-0.3906 1.3594 (   927 PWs)   bands (ev):

    -3.1012  -0.5079   4.2805   4.9517   8.8188   9.5946  10.4059  14.5758
    15.3579  16.3844  17.8733  18.4352  19.7150  20.7094  25.5648  26.5316
    27.3102  28.1490  28.2826  29.1136  31.9061  32.4661  32.9171  34.6468
    34.8901  35.8877  37.2116  37.6369  39.4274  39.4816

     occupation numbers 
     1.0000   1.0000   1.0000   1.0000   0.0000   0.0000   0.0000   0.0000
     0.0000   0.0000   0.0000   0.0000   0.0000   0.0000   0.0000   0.0000
     0.0000   0.0000   0.0000   0.0000   0.0000   0.0000   0.0000   0.0000
     0.0000   0.0000   0.0000   0.0000   0.0000   0.0000

          k = 0.4844-0.3594 1.3281 (   927 PWs)   bands (ev):

    -3.0082  -0.4889   3.9060   4.8118   8.9774   9.6195  10.7943  14.6174
    14.9184  16.2967  17.9094  18.6011  20.3963  20.9955  25.5796  26.0987
    27.5543  27.6748  27.9590  29.0724  31.8741  32.1380  33.1689  34.4245
    34.7466  35.9793  37.1163  37.3496  39.1267  40.2309

     occupation numbers 
     1.0000   1.0000   1.0000   1.0000   0.0000   0.0000   0.0000   0.0000
     0.0000   0.0000   0.0000   0.0000   0.0000   0.0000   0.0000   0.0000
     0.0000   0.0000   0.0000   0.0000   0.0000   0.0000   0.0000   0.0000
     0.0000   0.0000   0.0000   0.0000   0.0000   0.0000

          k =-0.4219-1.3906 0.4219 (   924 PWs)   bands (ev):

    -3.1353  -0.5255   4.4801   5.0058   8.6328   9.7366  10.1815  14.4733
    15.5349  16.7166  17.8594  18.3331  19.1677  20.6522  25.7422  26.5741
    27.2617  28.2498  28.5300  28.9856  32.1703  32.4442  32.8539  34.6818
    35.0144  35.7513  37.4177  37.5551  39.1030  40.2302

     occupation numbers 
     1.0000   1.0000   1.0000   1.0000   0.0000   0.0000   0.0000   0.0000
     0.0000   0.0000   0.0000   0.0000   0.0000   0.0000   0.0000   0.0000
     0.0000   0.0000   0.0000   0.0000   0.0000   0.0000   0.0000   0.0000
     0.0000   0.0000   0.0000   0.0000   0.0000   0.0000

          k =-0.4531-1.3594 0.3906 (   927 PWs)   bands (ev):

    -3.0765  -0.5209   4.2184   4.9383   8.7591   9.7354  10.3993  14.5493
    15.3798  16.3680  17.8284  18.5386  19.6962  20.7799  25.8752  26.1969
    27.4322  27.9376  28.4131  28.9396  32.0571  32.2133  33.0562  34.6512
    34.9291  35.8609  37.1145  37.3512  39.6131  39.7473

     occupation numbers 
     1.0000   1.0000   1.0000   1.0000   0.0000   0.0000   0.0000   0.0000
     0.0000   0.0000   0.0000   0.0000   0.0000   0.0000   0.0000   0.0000
     0.0000   0.0000   0.0000   0.0000   0.0000   0.0000   0.0000   0.0000
     0.0000   0.0000   0.0000   0.0000   0.0000   0.0000

          k =-0.4219-1.3281 0.4219 (   928 PWs)   bands (ev):

    -3.0426  -0.5042   4.0248   4.9223   8.7156   9.9855  10.4245  14.5675
    15.3798  16.0466  17.6134  19.1021  19.8509  20.8854  25.5517  26.3740
    27.4824  27.6477  28.5533  28.7258  31.9434  32.1814  33.2381  34.5516
    34.8734  35.9083  36.8210  37.1862  40.0446  40.0537

     occupation numbers 
     1.0000   1.0000   1.0000   1.0000   0.0000   0.0000   0.0000   0.0000
     0.0000   0.0000   0.0000   0.0000   0.0000   0.0000   0.0000   0.0000
     0.0000   0.0000   0.0000   0.0000   0.0000   0.0000   0.0000   0.0000
     0.0000   0.0000   0.0000   0.0000   0.0000   0.0000

          k =-0.4531 0.4531 0.4531 (   929 PWs)   bands (ev):

    -3.3480  -0.4233   5.2255   5.2255   8.0999   9.7815   9.7815  14.2261
    16.4056  16.4056  17.5650  18.5842  18.5842  20.0936  24.9222  27.2089
    27.2089  27.9350  29.6142  29.6142  31.8603  33.3346  33.3346  34.4247
    34.4247  35.6465  37.4938  39.4312  39.4312  39.9962

     occupation numbers 
     1.0000   1.0000   1.0000   1.0000   0.0000   0.0000   0.0000   0.0000
     0.0000   0.0000   0.0000   0.0000   0.0000   0.0000   0.0000   0.0000
     0.0000   0.0000   0.0000   0.0000   0.0000   0.0000   0.0000   0.0000
     0.0000   0.0000   0.0000   0.0000   0.0000   0.0000

          k =-0.4844 0.4844 0.4219 (   926 PWs)   bands (ev):

    -3.2897  -0.4852   5.0921   5.2205   8.1880   9.7778   9.7961  14.2659
    16.2880  16.6438  17.9163  18.0611  18.6947  20.0588  25.2020  27.1901
    27.5876  27.7631  29.1622  29.5195  32.1384  32.8875  33.3534  34.4099
    34.5948  35.5513  37.6974  38.8362  39.1734  40.0270

     occupation numbers 
     1.0000   1.0000   1.0000   1.0000   0.0000   0.0000   0.0000   0.0000
     0.0000   0.0000   0.0000   0.0000   0.0000   0.0000   0.0000   0.0000
     0.0000   0.0000   0.0000   0.0000   0.0000   0.0000   0.0000   0.0000
     0.0000   0.0000   0.0000   0.0000   0.0000   0.0000

          k = 0.4844-0.4844 1.3906 (   927 PWs)   bands (ev):

    -3.2185  -0.5190   4.8044   5.1622   8.4139   9.7450   9.9142  14.4047
    16.1881  16.3627  17.6657  18.6365  18.8196  20.1514  25.4220  27.0708
    27.3622  28.2464  28.6359  29.3437  32.3599  32.4509  33.0768  34.5620
    34.7285  35.6709  38.0457  38.1072  38.6035  40.2872

     occupation numbers 
     1.0000   1.0000   1.0000   1.0000   0.0000   0.0000   0.0000   0.0000
     0.0000   0.0000   0.0000   0.0000   0.0000   0.0000   0.0000   0.0000
     0.0000   0.0000   0.0000   0.0000   0.0000   0.0000   0.0000   0.0000
     0.0000   0.0000   0.0000   0.0000   0.0000   0.0000

          k = 0.4531-0.4531 1.3594 (   927 PWs)   bands (ev):

    -3.1358  -0.5247   4.4315   5.0587   8.6436   9.7688  10.1278  14.5871
    15.8057  16.1074  17.5557  18.9565  19.3534  20.3786  25.5413  26.7401
    27.4383  28.0577  28.5717  29.0699  31.9765  32.5396  32.9485  34.7327
    34.7444  35.8641  37.4599  37.4865  39.1480  40.3770

     occupation numbers 
     1.0000   1.0000   1.0000   1.0000   0.0000   0.0000   0.0000   0.0000
     0.0000   0.0000   0.0000   0.0000   0.0000   0.0000   0.0000   0.0000
     0.0000   0.0000   0.0000   0.0000   0.0000   0.0000   0.0000   0.0000
     0.0000   0.0000   0.0000   0.0000   0.0000   0.0000

          k =-0.4531 0.5156 0.4531 (   924 PWs)   bands (ev):

    -3.2529  -0.5383   5.1254   5.1767   8.1833   9.7336   9.8299  14.2558
    16.3346  16.9960  17.9179  17.9582  18.4518  19.9742  25.5116  27.2281
    27.4987  28.0130  28.9246  29.2887  32.3311  32.9700  33.1697  34.4666
    34.5805  35.3580  37.7169  38.9148  39.0339  40.0905

     occupation numbers 
     1.0000   1.0000   1.0000   1.0000   0.0000   0.0000   0.0000   0.0000
     0.0000   0.0000   0.0000   0.0000   0.0000   0.0000   0.0000   0.0000
     0.0000   0.0000   0.0000   0.0000   0.0000   0.0000   0.0000   0.0000
     0.0000   0.0000   0.0000   0.0000   0.0000   0.0000

          k = 0.5156-0.4531 1.4219 (   928 PWs)   bands (ev):

    -3.2045  -0.5616   4.9175   5.1469   8.3442   9.7071   9.9095  14.3487
    16.2049  16.7910  17.8309  18.1848  18.6809  20.0477  25.7679  26.8556
    27.6033  28.3737  28.5093  29.1317  32.5394  32.6246  32.9325  34.5714
    34.7351  35.4069  38.0320  38.2733  38.7142  40.0007

     occupation numbers 
     1.0000   1.0000   1.0000   1.0000   0.0000   0.0000   0.0000   0.0000
     0.0000   0.0000   0.0000   0.0000   0.0000   0.0000   0.0000   0.0000
     0.0000   0.0000   0.0000   0.0000   0.0000   0.0000   0.0000   0.0000
     0.0000   0.0000   0.0000   0.0000   0.0000   0.0000

          k = 0.4844-0.4219 1.3906 (   927 PWs)   bands (ev):

    -3.1455  -0.5553   4.5951   5.0645   8.5869   9.6692  10.1018  14.5075
    15.8479  16.4569  17.7991  18.3849  19.2449  20.2744  25.9152  26.4895
    27.7281  27.9538  28.6335  28.9990  32.2351  32.5370  32.8337  34.6840
    34.8524  35.6349  37.5697  37.9462  38.8548  39.8747

     occupation numbers 
     1.0000   1.0000   1.0000   1.0000   0.0000   0.0000   0.0000   0.0000
     0.0000   0.0000   0.0000   0.0000   0.0000   0.0000   0.0000   0.0000
     0.0000   0.0000   0.0000   0.0000   0.0000   0.0000   0.0000   0.0000
     0.0000   0.0000   0.0000   0.0000   0.0000   0.0000

          k =-0.4531-1.4219 0.4531 (   929 PWs)   bands (ev):

    -3.1800  -0.5738   4.8346   5.1197   8.4086   9.7057   9.9468  14.3888
    16.1147  16.7720  17.8267  18.2069  18.7840  20.0939  26.0183  26.5517
    27.8065  28.1249  28.7025  28.9208  32.5952  32.5956  32.7709  34.6646
    34.7623  35.3989  38.0384  38.2014  38.4875  40.3195

     occupation numbers 
     1.0000   1.0000   1.0000   1.0000   0.0000   0.0000   0.0000   0.0000
     0.0000   0.0000   0.0000   0.0000   0.0000   0.0000   0.0000   0.0000
     0.0000   0.0000   0.0000   0.0000   0.0000   0.0000   0.0000   0.0000
     0.0000   0.0000   0.0000   0.0000   0.0000   0.0000

          k =-0.4844 0.4844 0.4844 (   912 PWs)   bands (ev):

    -3.2391  -0.5809   5.2114   5.2114   8.0841   9.7647   9.7647  14.2005
    16.9166  16.9166  17.9020  18.0135  18.0135  19.7831  25.8205  26.9458
    28.0420  28.0420  28.8832  28.8832  32.4304  33.2505  33.2505  34.3869
    34.3869  35.1477  37.5470  39.4098  39.4098  39.8889

     occupation numbers 
     1.0000   1.0000   1.0000   1.0000   0.0000   0.0000   0.0000   0.0000
     0.0000   0.0000   0.0000   0.0000   0.0000   0.0000   0.0000   0.0000
     0.0000   0.0000   0.0000   0.0000   0.0000   0.0000   0.0000   0.0000
     0.0000   0.0000   0.0000   0.0000   0.0000   0.0000

          k = 0.4844-0.4844 1.4531 (   924 PWs)   bands (ev):

    -3.2146  -0.5928   5.1015   5.1914   8.1778   9.7471   9.8046  14.2514
    16.7580  16.8400  17.8419  18.0985  18.2341  19.8242  26.0503  26.6629
    28.0606  28.3243  28.5884  28.8247  32.5467  32.9711  33.1071  34.4961
    34.5224  35.1655  37.7332  38.9009  39.0113  40.0946

     occupation numbers 
     1.0000   1.0000   1.0000   1.0000   0.0000   0.0000   0.0000   0.0000
     0.0000   0.0000   0.0000   0.0000   0.0000   0.0000   0.0000   0.0000
     0.0000   0.0000   0.0000   0.0000   0.0000   0.0000   0.0000   0.0000
     0.0000   0.0000   0.0000   0.0000   0.0000   0.0000

     highest occupied, lowest unoccupied level (ev):     6.4144    7.0005

     Writing output data file Si_bulk.save/

     init_run     :      0.28s CPU      0.32s WALL (       1 calls)
     electrons    :    934.93s CPU    860.49s WALL (       1 calls)

     Called by init_run:
     wfcinit      :      0.00s CPU      0.00s WALL (       1 calls)
     wfcinit:atom :      0.41s CPU      0.42s WALL (    2992 calls)
     wfcinit:wfcr :     49.66s CPU     50.48s WALL (    2992 calls)
     potinit      :      0.02s CPU      0.03s WALL (       1 calls)
     hinit0       :      0.24s CPU      0.25s WALL (       1 calls)

     Called by electrons:
     c_bands      :    934.86s CPU    860.30s WALL (       1 calls)
     v_of_rho     :      0.02s CPU      0.02s WALL (       1 calls)
     v_h          :      0.00s CPU      0.00s WALL (       1 calls)
     v_xc         :      0.02s CPU      0.02s WALL (       1 calls)

     Called by c_bands:
     init_us_2    :      0.45s CPU      0.46s WALL (    2992 calls)
     cegterg      :    881.40s CPU    803.32s WALL (    4131 calls)

     Called by sum_band:

     Called by *egterg:
     h_psi        :    533.14s CPU    548.59s WALL (   65789 calls)
     g_psi        :      3.25s CPU      3.36s WALL (   58666 calls)
     cdiaghg      :    156.88s CPU    158.90s WALL (   61658 calls)
     cegterg:over :    103.47s CPU     58.70s WALL (   58666 calls)
     cegterg:upda :     75.22s CPU     45.90s WALL (   58666 calls)
     cegterg:last :     46.48s CPU     25.89s WALL (   13051 calls)

     Called by h_psi:
     h_psi:pot    :    531.72s CPU    547.06s WALL (   65789 calls)
     h_psi:calbec :      7.96s CPU      8.27s WALL (   65789 calls)
     vloc_psi     :    513.22s CPU    530.28s WALL (   65789 calls)
     add_vuspsi   :     10.38s CPU      8.28s WALL (   65789 calls)

     General routines
     calbec       :      7.88s CPU      8.16s WALL (   65789 calls)
     fft          :      0.00s CPU      0.01s WALL (      10 calls)
     fftw         :    442.58s CPU    456.46s WALL ( 2205900 calls)
     davcio       :      0.04s CPU      3.48s WALL (    5984 calls)


     PWSCF        :  15m37.08s CPU  14m31.58s WALL


   This run was terminated on:  14:49:55  28Apr2021            

=------------------------------------------------------------------------------=
   JOB DONE.
=------------------------------------------------------------------------------=
