
     Program PWSCF v.6.4.1 starts on 28Apr2021 at 14:27:16 

     This program is part of the open-source Quantum ESPRESSO suite
     for quantum simulation of materials; please cite
         "P. Giannozzi et al., J. Phys.:Condens. Matter 21 395502 (2009);
         "P. Giannozzi et al., J. Phys.:Condens. Matter 29 465901 (2017);
          URL http://www.quantum-espresso.org", 
     in publications or presentations arising from this work. More details at
     http://www.quantum-espresso.org/quote

     Serial version
     Waiting for input...
     Reading input from standard input
     Message from routine read_cards :
     DEPRECATED: no units specified in ATOMIC_POSITIONS card
     Message from routine read_cards :
     ATOMIC_POSITIONS: units set to alat

     Current dimensions of program PWSCF are:
     Max number of different atomic species (ntypx) = 10
     Max number of k-points (npk) =  40000
     Max angular momentum in pseudopotentials (lmaxx) =  3

     Atomic positions and unit cell read from directory:
     ./tmp/Si_bulk.save/


     G-vector sticks info
     --------------------
     sticks:   dense  smooth     PW     G-vecs:    dense   smooth      PW
     Sum         499     499    163                 7391     7391    1459



     bravais-lattice index     =            2
     lattice parameter (alat)  =      10.2000  a.u.
     unit-cell volume          =     265.3020 (a.u.)^3
     number of atoms/cell      =            2
     number of atomic types    =            1
     number of electrons       =         8.00
     number of Kohn-Sham states=           30
     kinetic-energy cutoff     =      35.0000  Ry
     charge density cutoff     =     140.0000  Ry
     Exchange-correlation      =  SLA  PW   PBE  PBE ( 1  4  3  4 0 0)

     celldm(1)=  10.200000  celldm(2)=   0.000000  celldm(3)=   0.000000
     celldm(4)=   0.000000  celldm(5)=   0.000000  celldm(6)=   0.000000

     crystal axes: (cart. coord. in units of alat)
               a(1) = (  -0.500000   0.000000   0.500000 )  
               a(2) = (   0.000000   0.500000   0.500000 )  
               a(3) = (  -0.500000   0.500000   0.000000 )  

     reciprocal axes: (cart. coord. in units 2 pi/alat)
               b(1) = ( -1.000000 -1.000000  1.000000 )  
               b(2) = (  1.000000  1.000000  1.000000 )  
               b(3) = ( -1.000000  1.000000 -1.000000 )  


     PseudoPot. # 1 for Si read from file:
     /Users/simonebrozzesi/Uni/qe-6.4.1/pseudo/Si.pbe-rrkj.UPF
     MD5 check sum: cf7ab5690cd9a85b22c4813f7e365554
     Pseudo is Norm-conserving, Zval =  4.0
     Generated by new atomic code, or converted to UPF format
     Using radial grid of  883 points,  3 beta functions with: 
                l(1) =   0
                l(2) =   0
                l(3) =   1

     atomic species   valence    mass     pseudopotential
        Si             4.00    28.08550     Si( 1.00)

     48 Sym. Ops., with inversion, found (24 have fractional translation)


                                    s                        frac. trans.

      isym =  1     identity                                     

 cryst.   s( 1) = (     1          0          0      )
                  (     0          1          0      )
                  (     0          0          1      )

 cart.    s( 1) = (  1.0000000  0.0000000  0.0000000 )
                  (  0.0000000  1.0000000  0.0000000 )
                  (  0.0000000  0.0000000  1.0000000 )


      isym =  2     180 deg rotation - cart. axis [0,0,1]        

 cryst.   s( 2) = (     0          1         -1      )
                  (     1          0         -1      )
                  (     0          0         -1      )

 cart.    s( 2) = ( -1.0000000  0.0000000  0.0000000 )
                  (  0.0000000 -1.0000000  0.0000000 )
                  (  0.0000000  0.0000000  1.0000000 )


      isym =  3     180 deg rotation - cart. axis [0,1,0]        

 cryst.   s( 3) = (    -1          0          0      )
                  (    -1          0          1      )
                  (    -1          1          0      )

 cart.    s( 3) = ( -1.0000000  0.0000000  0.0000000 )
                  (  0.0000000  1.0000000  0.0000000 )
                  (  0.0000000  0.0000000 -1.0000000 )


      isym =  4     180 deg rotation - cart. axis [1,0,0]        

 cryst.   s( 4) = (     0         -1          1      )
                  (     0         -1          0      )
                  (     1         -1          0      )

 cart.    s( 4) = (  1.0000000  0.0000000  0.0000000 )
                  (  0.0000000 -1.0000000  0.0000000 )
                  (  0.0000000  0.0000000 -1.0000000 )


      isym =  5     180 deg rotation - cart. axis [1,1,0]        

 cryst.   s( 5) = (     0         -1          0      )    f =(  0.2500000 )
                  (    -1          0          0      )       (  0.2500000 )
                  (     0          0         -1      )       (  0.2500000 )

 cart.    s( 5) = (  0.0000000  1.0000000  0.0000000 )    f =( -0.2500000 )
                  (  1.0000000  0.0000000  0.0000000 )       (  0.2500000 )
                  (  0.0000000  0.0000000 -1.0000000 )       (  0.2500000 )


      isym =  6     180 deg rotation - cart. axis [1,-1,0]       

 cryst.   s( 6) = (    -1          0          1      )    f =(  0.2500000 )
                  (     0         -1          1      )       (  0.2500000 )
                  (     0          0          1      )       (  0.2500000 )

 cart.    s( 6) = (  0.0000000 -1.0000000  0.0000000 )    f =( -0.2500000 )
                  ( -1.0000000  0.0000000  0.0000000 )       (  0.2500000 )
                  (  0.0000000  0.0000000 -1.0000000 )       (  0.2500000 )


      isym =  7      90 deg rotation - cart. axis [0,0,-1]       

 cryst.   s( 7) = (     0          1          0      )    f =(  0.2500000 )
                  (     0          1         -1      )       (  0.2500000 )
                  (    -1          1          0      )       (  0.2500000 )

 cart.    s( 7) = (  0.0000000  1.0000000  0.0000000 )    f =( -0.2500000 )
                  ( -1.0000000  0.0000000  0.0000000 )       (  0.2500000 )
                  (  0.0000000  0.0000000  1.0000000 )       (  0.2500000 )


      isym =  8      90 deg rotation - cart. axis [0,0,1]        

 cryst.   s( 8) = (     1          0         -1      )    f =(  0.2500000 )
                  (     1          0          0      )       (  0.2500000 )
                  (     1         -1          0      )       (  0.2500000 )

 cart.    s( 8) = (  0.0000000 -1.0000000  0.0000000 )    f =( -0.2500000 )
                  (  1.0000000  0.0000000  0.0000000 )       (  0.2500000 )
                  (  0.0000000  0.0000000  1.0000000 )       (  0.2500000 )


      isym =  9     180 deg rotation - cart. axis [1,0,1]        

 cryst.   s( 9) = (    -1          0          0      )    f =(  0.2500000 )
                  (     0          0         -1      )       (  0.2500000 )
                  (     0         -1          0      )       (  0.2500000 )

 cart.    s( 9) = (  0.0000000  0.0000000  1.0000000 )    f =( -0.2500000 )
                  (  0.0000000 -1.0000000  0.0000000 )       (  0.2500000 )
                  (  1.0000000  0.0000000  0.0000000 )       (  0.2500000 )


      isym = 10     180 deg rotation - cart. axis [-1,0,1]       

 cryst.   s(10) = (     1          0          0      )    f =(  0.2500000 )
                  (     1         -1          0      )       (  0.2500000 )
                  (     1          0         -1      )       (  0.2500000 )

 cart.    s(10) = (  0.0000000  0.0000000 -1.0000000 )    f =( -0.2500000 )
                  (  0.0000000 -1.0000000  0.0000000 )       (  0.2500000 )
                  ( -1.0000000  0.0000000  0.0000000 )       (  0.2500000 )


      isym = 11      90 deg rotation - cart. axis [0,1,0]        

 cryst.   s(11) = (     0          1         -1      )    f =(  0.2500000 )
                  (    -1          1          0      )       (  0.2500000 )
                  (     0          1          0      )       (  0.2500000 )

 cart.    s(11) = (  0.0000000  0.0000000  1.0000000 )    f =( -0.2500000 )
                  (  0.0000000  1.0000000  0.0000000 )       (  0.2500000 )
                  ( -1.0000000  0.0000000  0.0000000 )       (  0.2500000 )


      isym = 12      90 deg rotation - cart. axis [0,-1,0]       

 cryst.   s(12) = (     0         -1          1      )    f =(  0.2500000 )
                  (     0          0          1      )       (  0.2500000 )
                  (    -1          0          1      )       (  0.2500000 )

 cart.    s(12) = (  0.0000000  0.0000000 -1.0000000 )    f =( -0.2500000 )
                  (  0.0000000  1.0000000  0.0000000 )       (  0.2500000 )
                  (  1.0000000  0.0000000  0.0000000 )       (  0.2500000 )


      isym = 13     180 deg rotation - cart. axis [0,1,1]        

 cryst.   s(13) = (    -1          1          0      )    f =(  0.2500000 )
                  (     0          1          0      )       (  0.2500000 )
                  (     0          1         -1      )       (  0.2500000 )

 cart.    s(13) = ( -1.0000000  0.0000000  0.0000000 )    f =( -0.2500000 )
                  (  0.0000000  0.0000000  1.0000000 )       (  0.2500000 )
                  (  0.0000000  1.0000000  0.0000000 )       (  0.2500000 )


      isym = 14     180 deg rotation - cart. axis [0,1,-1]       

 cryst.   s(14) = (     0          0         -1      )    f =(  0.2500000 )
                  (     0         -1          0      )       (  0.2500000 )
                  (    -1          0          0      )       (  0.2500000 )

 cart.    s(14) = ( -1.0000000  0.0000000  0.0000000 )    f =( -0.2500000 )
                  (  0.0000000  0.0000000 -1.0000000 )       (  0.2500000 )
                  (  0.0000000 -1.0000000  0.0000000 )       (  0.2500000 )


      isym = 15      90 deg rotation - cart. axis [-1,0,0]       

 cryst.   s(15) = (     0          0          1      )    f =(  0.2500000 )
                  (    -1          0          1      )       (  0.2500000 )
                  (     0         -1          1      )       (  0.2500000 )

 cart.    s(15) = (  1.0000000  0.0000000  0.0000000 )    f =( -0.2500000 )
                  (  0.0000000  0.0000000  1.0000000 )       (  0.2500000 )
                  (  0.0000000 -1.0000000  0.0000000 )       (  0.2500000 )


      isym = 16      90 deg rotation - cart. axis [1,0,0]        

 cryst.   s(16) = (     1         -1          0      )    f =(  0.2500000 )
                  (     1          0         -1      )       (  0.2500000 )
                  (     1          0          0      )       (  0.2500000 )

 cart.    s(16) = (  1.0000000  0.0000000  0.0000000 )    f =( -0.2500000 )
                  (  0.0000000  0.0000000 -1.0000000 )       (  0.2500000 )
                  (  0.0000000  1.0000000  0.0000000 )       (  0.2500000 )


      isym = 17     120 deg rotation - cart. axis [-1,-1,-1]     

 cryst.   s(17) = (    -1          0          1      )
                  (    -1          1          0      )
                  (    -1          0          0      )

 cart.    s(17) = (  0.0000000  1.0000000  0.0000000 )
                  (  0.0000000  0.0000000  1.0000000 )
                  (  1.0000000  0.0000000  0.0000000 )


      isym = 18     120 deg rotation - cart. axis [-1,1,1]       

 cryst.   s(18) = (     0          1          0      )
                  (     0          0          1      )
                  (     1          0          0      )

 cart.    s(18) = (  0.0000000 -1.0000000  0.0000000 )
                  (  0.0000000  0.0000000  1.0000000 )
                  ( -1.0000000  0.0000000  0.0000000 )


      isym = 19     120 deg rotation - cart. axis [1,1,-1]       

 cryst.   s(19) = (     1          0         -1      )
                  (     0          0         -1      )
                  (     0          1         -1      )

 cart.    s(19) = (  0.0000000  1.0000000  0.0000000 )
                  (  0.0000000  0.0000000 -1.0000000 )
                  ( -1.0000000  0.0000000  0.0000000 )


      isym = 20     120 deg rotation - cart. axis [1,-1,1]       

 cryst.   s(20) = (     0         -1          0      )
                  (     1         -1          0      )
                  (     0         -1          1      )

 cart.    s(20) = (  0.0000000 -1.0000000  0.0000000 )
                  (  0.0000000  0.0000000 -1.0000000 )
                  (  1.0000000  0.0000000  0.0000000 )


      isym = 21     120 deg rotation - cart. axis [1,1,1]        

 cryst.   s(21) = (     0          0         -1      )
                  (     0          1         -1      )
                  (     1          0         -1      )

 cart.    s(21) = (  0.0000000  0.0000000  1.0000000 )
                  (  1.0000000  0.0000000  0.0000000 )
                  (  0.0000000  1.0000000  0.0000000 )


      isym = 22     120 deg rotation - cart. axis [-1,1,-1]      

 cryst.   s(22) = (    -1          1          0      )
                  (    -1          0          0      )
                  (    -1          0          1      )

 cart.    s(22) = (  0.0000000  0.0000000  1.0000000 )
                  ( -1.0000000  0.0000000  0.0000000 )
                  (  0.0000000 -1.0000000  0.0000000 )


      isym = 23     120 deg rotation - cart. axis [1,-1,-1]      

 cryst.   s(23) = (     0          0          1      )
                  (     1          0          0      )
                  (     0          1          0      )

 cart.    s(23) = (  0.0000000  0.0000000 -1.0000000 )
                  ( -1.0000000  0.0000000  0.0000000 )
                  (  0.0000000  1.0000000  0.0000000 )


      isym = 24     120 deg rotation - cart. axis [-1,-1,1]      

 cryst.   s(24) = (     1         -1          0      )
                  (     0         -1          1      )
                  (     0         -1          0      )

 cart.    s(24) = (  0.0000000  0.0000000 -1.0000000 )
                  (  1.0000000  0.0000000  0.0000000 )
                  (  0.0000000 -1.0000000  0.0000000 )


      isym = 25     inversion                                    

 cryst.   s(25) = (    -1          0          0      )    f =(  0.2500000 )
                  (     0         -1          0      )       (  0.2500000 )
                  (     0          0         -1      )       (  0.2500000 )

 cart.    s(25) = ( -1.0000000  0.0000000  0.0000000 )    f =( -0.2500000 )
                  (  0.0000000 -1.0000000  0.0000000 )       (  0.2500000 )
                  (  0.0000000  0.0000000 -1.0000000 )       (  0.2500000 )


      isym = 26     inv. 180 deg rotation - cart. axis [0,0,1]   

 cryst.   s(26) = (     0         -1          1      )    f =(  0.2500000 )
                  (    -1          0          1      )       (  0.2500000 )
                  (     0          0          1      )       (  0.2500000 )

 cart.    s(26) = (  1.0000000  0.0000000  0.0000000 )    f =( -0.2500000 )
                  (  0.0000000  1.0000000  0.0000000 )       (  0.2500000 )
                  (  0.0000000  0.0000000 -1.0000000 )       (  0.2500000 )


      isym = 27     inv. 180 deg rotation - cart. axis [0,1,0]   

 cryst.   s(27) = (     1          0          0      )    f =(  0.2500000 )
                  (     1          0         -1      )       (  0.2500000 )
                  (     1         -1          0      )       (  0.2500000 )

 cart.    s(27) = (  1.0000000  0.0000000  0.0000000 )    f =( -0.2500000 )
                  (  0.0000000 -1.0000000  0.0000000 )       (  0.2500000 )
                  (  0.0000000  0.0000000  1.0000000 )       (  0.2500000 )


      isym = 28     inv. 180 deg rotation - cart. axis [1,0,0]   

 cryst.   s(28) = (     0          1         -1      )    f =(  0.2500000 )
                  (     0          1          0      )       (  0.2500000 )
                  (    -1          1          0      )       (  0.2500000 )

 cart.    s(28) = ( -1.0000000  0.0000000  0.0000000 )    f =( -0.2500000 )
                  (  0.0000000  1.0000000  0.0000000 )       (  0.2500000 )
                  (  0.0000000  0.0000000  1.0000000 )       (  0.2500000 )


      isym = 29     inv. 180 deg rotation - cart. axis [1,1,0]   

 cryst.   s(29) = (     0          1          0      )
                  (     1          0          0      )
                  (     0          0          1      )

 cart.    s(29) = (  0.0000000 -1.0000000  0.0000000 )
                  ( -1.0000000  0.0000000  0.0000000 )
                  (  0.0000000  0.0000000  1.0000000 )


      isym = 30     inv. 180 deg rotation - cart. axis [1,-1,0]  

 cryst.   s(30) = (     1          0         -1      )
                  (     0          1         -1      )
                  (     0          0         -1      )

 cart.    s(30) = (  0.0000000  1.0000000  0.0000000 )
                  (  1.0000000  0.0000000  0.0000000 )
                  (  0.0000000  0.0000000  1.0000000 )


      isym = 31     inv.  90 deg rotation - cart. axis [0,0,-1]  

 cryst.   s(31) = (     0         -1          0      )
                  (     0         -1          1      )
                  (     1         -1          0      )

 cart.    s(31) = (  0.0000000 -1.0000000  0.0000000 )
                  (  1.0000000  0.0000000  0.0000000 )
                  (  0.0000000  0.0000000 -1.0000000 )


      isym = 32     inv.  90 deg rotation - cart. axis [0,0,1]   

 cryst.   s(32) = (    -1          0          1      )
                  (    -1          0          0      )
                  (    -1          1          0      )

 cart.    s(32) = (  0.0000000  1.0000000  0.0000000 )
                  ( -1.0000000  0.0000000  0.0000000 )
                  (  0.0000000  0.0000000 -1.0000000 )


      isym = 33     inv. 180 deg rotation - cart. axis [1,0,1]   

 cryst.   s(33) = (     1          0          0      )
                  (     0          0          1      )
                  (     0          1          0      )

 cart.    s(33) = (  0.0000000  0.0000000 -1.0000000 )
                  (  0.0000000  1.0000000  0.0000000 )
                  ( -1.0000000  0.0000000  0.0000000 )


      isym = 34     inv. 180 deg rotation - cart. axis [-1,0,1]  

 cryst.   s(34) = (    -1          0          0      )
                  (    -1          1          0      )
                  (    -1          0          1      )

 cart.    s(34) = (  0.0000000  0.0000000  1.0000000 )
                  (  0.0000000  1.0000000  0.0000000 )
                  (  1.0000000  0.0000000  0.0000000 )


      isym = 35     inv.  90 deg rotation - cart. axis [0,1,0]   

 cryst.   s(35) = (     0         -1          1      )
                  (     1         -1          0      )
                  (     0         -1          0      )

 cart.    s(35) = (  0.0000000  0.0000000 -1.0000000 )
                  (  0.0000000 -1.0000000  0.0000000 )
                  (  1.0000000  0.0000000  0.0000000 )


      isym = 36     inv.  90 deg rotation - cart. axis [0,-1,0]  

 cryst.   s(36) = (     0          1         -1      )
                  (     0          0         -1      )
                  (     1          0         -1      )

 cart.    s(36) = (  0.0000000  0.0000000  1.0000000 )
                  (  0.0000000 -1.0000000  0.0000000 )
                  ( -1.0000000  0.0000000  0.0000000 )


      isym = 37     inv. 180 deg rotation - cart. axis [0,1,1]   

 cryst.   s(37) = (     1         -1          0      )
                  (     0         -1          0      )
                  (     0         -1          1      )

 cart.    s(37) = (  1.0000000  0.0000000  0.0000000 )
                  (  0.0000000  0.0000000 -1.0000000 )
                  (  0.0000000 -1.0000000  0.0000000 )


      isym = 38     inv. 180 deg rotation - cart. axis [0,1,-1]  

 cryst.   s(38) = (     0          0          1      )
                  (     0          1          0      )
                  (     1          0          0      )

 cart.    s(38) = (  1.0000000  0.0000000  0.0000000 )
                  (  0.0000000  0.0000000  1.0000000 )
                  (  0.0000000  1.0000000  0.0000000 )


      isym = 39     inv.  90 deg rotation - cart. axis [-1,0,0]  

 cryst.   s(39) = (     0          0         -1      )
                  (     1          0         -1      )
                  (     0          1         -1      )

 cart.    s(39) = ( -1.0000000  0.0000000  0.0000000 )
                  (  0.0000000  0.0000000 -1.0000000 )
                  (  0.0000000  1.0000000  0.0000000 )


      isym = 40     inv.  90 deg rotation - cart. axis [1,0,0]   

 cryst.   s(40) = (    -1          1          0      )
                  (    -1          0          1      )
                  (    -1          0          0      )

 cart.    s(40) = ( -1.0000000  0.0000000  0.0000000 )
                  (  0.0000000  0.0000000  1.0000000 )
                  (  0.0000000 -1.0000000  0.0000000 )


      isym = 41     inv. 120 deg rotation - cart. axis [-1,-1,-1]

 cryst.   s(41) = (     1          0         -1      )    f =(  0.2500000 )
                  (     1         -1          0      )       (  0.2500000 )
                  (     1          0          0      )       (  0.2500000 )

 cart.    s(41) = (  0.0000000 -1.0000000  0.0000000 )    f =( -0.2500000 )
                  (  0.0000000  0.0000000 -1.0000000 )       (  0.2500000 )
                  ( -1.0000000  0.0000000  0.0000000 )       (  0.2500000 )


      isym = 42     inv. 120 deg rotation - cart. axis [-1,1,1]  

 cryst.   s(42) = (     0         -1          0      )    f =(  0.2500000 )
                  (     0          0         -1      )       (  0.2500000 )
                  (    -1          0          0      )       (  0.2500000 )

 cart.    s(42) = (  0.0000000  1.0000000  0.0000000 )    f =( -0.2500000 )
                  (  0.0000000  0.0000000 -1.0000000 )       (  0.2500000 )
                  (  1.0000000  0.0000000  0.0000000 )       (  0.2500000 )


      isym = 43     inv. 120 deg rotation - cart. axis [1,1,-1]  

 cryst.   s(43) = (    -1          0          1      )    f =(  0.2500000 )
                  (     0          0          1      )       (  0.2500000 )
                  (     0         -1          1      )       (  0.2500000 )

 cart.    s(43) = (  0.0000000 -1.0000000  0.0000000 )    f =( -0.2500000 )
                  (  0.0000000  0.0000000  1.0000000 )       (  0.2500000 )
                  (  1.0000000  0.0000000  0.0000000 )       (  0.2500000 )


      isym = 44     inv. 120 deg rotation - cart. axis [1,-1,1]  

 cryst.   s(44) = (     0          1          0      )    f =(  0.2500000 )
                  (    -1          1          0      )       (  0.2500000 )
                  (     0          1         -1      )       (  0.2500000 )

 cart.    s(44) = (  0.0000000  1.0000000  0.0000000 )    f =( -0.2500000 )
                  (  0.0000000  0.0000000  1.0000000 )       (  0.2500000 )
                  ( -1.0000000  0.0000000  0.0000000 )       (  0.2500000 )


      isym = 45     inv. 120 deg rotation - cart. axis [1,1,1]   

 cryst.   s(45) = (     0          0          1      )    f =(  0.2500000 )
                  (     0         -1          1      )       (  0.2500000 )
                  (    -1          0          1      )       (  0.2500000 )

 cart.    s(45) = (  0.0000000  0.0000000 -1.0000000 )    f =( -0.2500000 )
                  ( -1.0000000  0.0000000  0.0000000 )       (  0.2500000 )
                  (  0.0000000 -1.0000000  0.0000000 )       (  0.2500000 )


      isym = 46     inv. 120 deg rotation - cart. axis [-1,1,-1] 

 cryst.   s(46) = (     1         -1          0      )    f =(  0.2500000 )
                  (     1          0          0      )       (  0.2500000 )
                  (     1          0         -1      )       (  0.2500000 )

 cart.    s(46) = (  0.0000000  0.0000000 -1.0000000 )    f =( -0.2500000 )
                  (  1.0000000  0.0000000  0.0000000 )       (  0.2500000 )
                  (  0.0000000  1.0000000  0.0000000 )       (  0.2500000 )


      isym = 47     inv. 120 deg rotation - cart. axis [1,-1,-1] 

 cryst.   s(47) = (     0          0         -1      )    f =(  0.2500000 )
                  (    -1          0          0      )       (  0.2500000 )
                  (     0         -1          0      )       (  0.2500000 )

 cart.    s(47) = (  0.0000000  0.0000000  1.0000000 )    f =( -0.2500000 )
                  (  1.0000000  0.0000000  0.0000000 )       (  0.2500000 )
                  (  0.0000000 -1.0000000  0.0000000 )       (  0.2500000 )


      isym = 48     inv. 120 deg rotation - cart. axis [-1,-1,1] 

 cryst.   s(48) = (    -1          1          0      )    f =(  0.2500000 )
                  (     0          1         -1      )       (  0.2500000 )
                  (     0          1          0      )       (  0.2500000 )

 cart.    s(48) = (  0.0000000  0.0000000  1.0000000 )    f =( -0.2500000 )
                  ( -1.0000000  0.0000000  0.0000000 )       (  0.2500000 )
                  (  0.0000000  1.0000000  0.0000000 )       (  0.2500000 )


     point group O_h (m-3m) 
     there are 10 classes
     the character table:

       E     8C3   3C2   6C4   6C2'  i     8S6   3s_h  6S4   6s_d 
A_1g   1.00  1.00  1.00  1.00  1.00  1.00  1.00  1.00  1.00  1.00
A_2g   1.00  1.00  1.00 -1.00 -1.00  1.00  1.00  1.00 -1.00 -1.00
E_g    2.00 -1.00  2.00  0.00  0.00  2.00 -1.00  2.00  0.00  0.00
T_1g   3.00  0.00 -1.00  1.00 -1.00  3.00  0.00 -1.00  1.00 -1.00
T_2g   3.00  0.00 -1.00 -1.00  1.00  3.00  0.00 -1.00 -1.00  1.00
A_1u   1.00  1.00  1.00  1.00  1.00 -1.00 -1.00 -1.00 -1.00 -1.00
A_2u   1.00  1.00  1.00 -1.00 -1.00 -1.00 -1.00 -1.00  1.00  1.00
E_u    2.00 -1.00  2.00  0.00  0.00 -2.00  1.00 -2.00  0.00  0.00
T_1u   3.00  0.00 -1.00  1.00 -1.00 -3.00  0.00  1.00 -1.00  1.00
T_2u   3.00  0.00 -1.00 -1.00  1.00 -3.00  0.00  1.00  1.00 -1.00

     the symmetry operations in each class and the name of the first element:

     E        1
          identity                                               
     8C3     17   19   20   18   24   21   22   23
          120 deg rotation - cart. axis [-1,-1,-1]               
     3C2      2    4    3
          180 deg rotation - cart. axis [0,0,1]                  
     6C4      7    8   15   16   12   11
           90 deg rotation - cart. axis [0,0,-1]                 
     6C2'     5    6   14   13   10    9
          180 deg rotation - cart. axis [1,1,0]                  
     i       25
          inversion                                              
     8S6     41   43   44   42   48   45   46   47
          inv. 120 deg rotation - cart. axis [-1,-1,-1]          
     3s_h    26   28   27
          inv. 180 deg rotation - cart. axis [0,0,1]             
     6S4     31   32   39   40   36   35
          inv.  90 deg rotation - cart. axis [0,0,-1]            
     6s_d    29   30   38   37   34   33
          inv. 180 deg rotation - cart. axis [1,1,0]             

   Cartesian axes

     site n.     atom                  positions (alat units)
         1           Si  tau(   1) = (   0.0000000   0.0000000   0.0000000  )
         2           Si  tau(   2) = (   0.2500000   0.2500000   0.2500000  )

   Crystallographic axes

     site n.     atom                  positions (cryst. coord.)
         1           Si  tau(   1) = (  0.0000000  0.0000000  0.0000000  )
         2           Si  tau(   2) = ( -0.2500000  0.7500000 -0.2500000  )

     number of k points=   408
                       cart. coord. in units 2pi/alat
        k(    1) = (  -0.0312500   0.0312500   0.0312500), wk =   0.0009766
        k(    2) = (  -0.0937500   0.0937500  -0.0312500), wk =   0.0029297
        k(    3) = (  -0.1562500   0.1562500  -0.0937500), wk =   0.0029297
        k(    4) = (  -0.2187500   0.2187500  -0.1562500), wk =   0.0029297
        k(    5) = (  -0.2812500   0.2812500  -0.2187500), wk =   0.0029297
        k(    6) = (  -0.3437500   0.3437500  -0.2812500), wk =   0.0029297
        k(    7) = (  -0.4062500   0.4062500  -0.3437500), wk =   0.0029297
        k(    8) = (  -0.4687500   0.4687500  -0.4062500), wk =   0.0029297
        k(    9) = (   0.4687500  -0.4687500   0.5312500), wk =   0.0029297
        k(   10) = (   0.4062500  -0.4062500   0.4687500), wk =   0.0029297
        k(   11) = (   0.3437500  -0.3437500   0.4062500), wk =   0.0029297
        k(   12) = (   0.2812500  -0.2812500   0.3437500), wk =   0.0029297
        k(   13) = (   0.2187500  -0.2187500   0.2812500), wk =   0.0029297
        k(   14) = (   0.1562500  -0.1562500   0.2187500), wk =   0.0029297
        k(   15) = (   0.0937500  -0.0937500   0.1562500), wk =   0.0029297
        k(   16) = (   0.0312500  -0.0312500   0.0937500), wk =   0.0029297
        k(   17) = (  -0.0312500   0.1562500   0.0312500), wk =   0.0029297
        k(   18) = (  -0.0937500   0.2187500  -0.0312500), wk =   0.0058594
        k(   19) = (  -0.1562500   0.2812500  -0.0937500), wk =   0.0058594
        k(   20) = (  -0.2187500   0.3437500  -0.1562500), wk =   0.0058594
        k(   21) = (  -0.2812500   0.4062500  -0.2187500), wk =   0.0058594
        k(   22) = (  -0.3437500   0.4687500  -0.2812500), wk =   0.0058594
        k(   23) = (  -0.4062500   0.5312500  -0.3437500), wk =   0.0058594
        k(   24) = (   0.5312500  -0.4062500   0.5937500), wk =   0.0058594
        k(   25) = (   0.4687500  -0.3437500   0.5312500), wk =   0.0058594
        k(   26) = (   0.4062500  -0.2812500   0.4687500), wk =   0.0058594
        k(   27) = (   0.3437500  -0.2187500   0.4062500), wk =   0.0058594
        k(   28) = (   0.2812500  -0.1562500   0.3437500), wk =   0.0058594
        k(   29) = (   0.2187500  -0.0937500   0.2812500), wk =   0.0058594
        k(   30) = (   0.1562500  -0.0312500   0.2187500), wk =   0.0058594
        k(   31) = (   0.0937500   0.0312500   0.1562500), wk =   0.0058594
        k(   32) = (  -0.0312500   0.2812500   0.0312500), wk =   0.0029297
        k(   33) = (  -0.0937500   0.3437500  -0.0312500), wk =   0.0058594
        k(   34) = (  -0.1562500   0.4062500  -0.0937500), wk =   0.0058594
        k(   35) = (  -0.2187500   0.4687500  -0.1562500), wk =   0.0058594
        k(   36) = (  -0.2812500   0.5312500  -0.2187500), wk =   0.0058594
        k(   37) = (  -0.3437500   0.5937500  -0.2812500), wk =   0.0058594
        k(   38) = (   0.5937500  -0.3437500   0.6562500), wk =   0.0058594
        k(   39) = (   0.5312500  -0.2812500   0.5937500), wk =   0.0058594
        k(   40) = (   0.4687500  -0.2187500   0.5312500), wk =   0.0058594
        k(   41) = (   0.4062500  -0.1562500   0.4687500), wk =   0.0058594
        k(   42) = (   0.3437500  -0.0937500   0.4062500), wk =   0.0058594
        k(   43) = (   0.2812500  -0.0312500   0.3437500), wk =   0.0058594
        k(   44) = (   0.2187500   0.0312500   0.2812500), wk =   0.0058594
        k(   45) = (   0.1562500   0.0937500   0.2187500), wk =   0.0058594
        k(   46) = (  -0.0312500   0.4062500   0.0312500), wk =   0.0029297
        k(   47) = (  -0.0937500   0.4687500  -0.0312500), wk =   0.0058594
        k(   48) = (  -0.1562500   0.5312500  -0.0937500), wk =   0.0058594
        k(   49) = (  -0.2187500   0.5937500  -0.1562500), wk =   0.0058594
        k(   50) = (  -0.2812500   0.6562500  -0.2187500), wk =   0.0058594
        k(   51) = (   0.6562500  -0.2812500   0.7187500), wk =   0.0058594
        k(   52) = (   0.5937500  -0.2187500   0.6562500), wk =   0.0058594
        k(   53) = (   0.5312500  -0.1562500   0.5937500), wk =   0.0058594
        k(   54) = (   0.4687500  -0.0937500   0.5312500), wk =   0.0058594
        k(   55) = (   0.4062500  -0.0312500   0.4687500), wk =   0.0058594
        k(   56) = (   0.3437500   0.0312500   0.4062500), wk =   0.0058594
        k(   57) = (   0.2812500   0.0937500   0.3437500), wk =   0.0058594
        k(   58) = (   0.2187500   0.1562500   0.2812500), wk =   0.0058594
        k(   59) = (  -0.0312500   0.5312500   0.0312500), wk =   0.0029297
        k(   60) = (  -0.0937500   0.5937500  -0.0312500), wk =   0.0058594
        k(   61) = (  -0.1562500   0.6562500  -0.0937500), wk =   0.0058594
        k(   62) = (  -0.2187500   0.7187500  -0.1562500), wk =   0.0058594
        k(   63) = (   0.7187500  -0.2187500   0.7812500), wk =   0.0058594
        k(   64) = (   0.6562500  -0.1562500   0.7187500), wk =   0.0058594
        k(   65) = (   0.5937500  -0.0937500   0.6562500), wk =   0.0058594
        k(   66) = (   0.5312500  -0.0312500   0.5937500), wk =   0.0058594
        k(   67) = (   0.4687500   0.0312500   0.5312500), wk =   0.0058594
        k(   68) = (   0.4062500   0.0937500   0.4687500), wk =   0.0058594
        k(   69) = (   0.3437500   0.1562500   0.4062500), wk =   0.0058594
        k(   70) = (   0.2812500   0.2187500   0.3437500), wk =   0.0058594
        k(   71) = (  -0.0312500   0.6562500   0.0312500), wk =   0.0029297
        k(   72) = (  -0.0937500   0.7187500  -0.0312500), wk =   0.0058594
        k(   73) = (  -0.1562500   0.7812500  -0.0937500), wk =   0.0058594
        k(   74) = (   0.7812500  -0.1562500   0.8437500), wk =   0.0058594
        k(   75) = (   0.7187500  -0.0937500   0.7812500), wk =   0.0058594
        k(   76) = (   0.6562500  -0.0312500   0.7187500), wk =   0.0058594
        k(   77) = (   0.5937500   0.0312500   0.6562500), wk =   0.0058594
        k(   78) = (   0.5312500   0.0937500   0.5937500), wk =   0.0058594
        k(   79) = (   0.4687500   0.1562500   0.5312500), wk =   0.0058594
        k(   80) = (   0.4062500   0.2187500   0.4687500), wk =   0.0058594
        k(   81) = (   0.3437500   0.2812500   0.4062500), wk =   0.0058594
        k(   82) = (  -0.0312500   0.7812500   0.0312500), wk =   0.0029297
        k(   83) = (  -0.0937500   0.8437500  -0.0312500), wk =   0.0058594
        k(   84) = (   0.8437500  -0.0937500   0.9062500), wk =   0.0058594
        k(   85) = (   0.7812500  -0.0312500   0.8437500), wk =   0.0058594
        k(   86) = (   0.7187500   0.0312500   0.7812500), wk =   0.0058594
        k(   87) = (   0.6562500   0.0937500   0.7187500), wk =   0.0058594
        k(   88) = (   0.5937500   0.1562500   0.6562500), wk =   0.0058594
        k(   89) = (   0.5312500   0.2187500   0.5937500), wk =   0.0058594
        k(   90) = (   0.4687500   0.2812500   0.5312500), wk =   0.0058594
        k(   91) = (   0.4062500   0.3437500   0.4687500), wk =   0.0058594
        k(   92) = (  -0.0312500   0.9062500   0.0312500), wk =   0.0029297
        k(   93) = (   0.9062500  -0.0312500   0.9687500), wk =   0.0058594
        k(   94) = (   0.8437500   0.0312500   0.9062500), wk =   0.0058594
        k(   95) = (   0.7812500   0.0937500   0.8437500), wk =   0.0058594
        k(   96) = (   0.7187500   0.1562500   0.7812500), wk =   0.0058594
        k(   97) = (   0.6562500   0.2187500   0.7187500), wk =   0.0058594
        k(   98) = (   0.5937500   0.2812500   0.6562500), wk =   0.0058594
        k(   99) = (   0.5312500   0.3437500   0.5937500), wk =   0.0058594
        k(  100) = (   0.4687500   0.4062500   0.5312500), wk =   0.0058594
        k(  101) = (  -0.0312500  -0.9687500   0.0312500), wk =   0.0029297
        k(  102) = (  -0.0937500  -0.9062500  -0.0312500), wk =   0.0058594
        k(  103) = (  -0.1562500  -0.8437500  -0.0937500), wk =   0.0058594
        k(  104) = (  -0.2187500  -0.7812500  -0.1562500), wk =   0.0058594
        k(  105) = (  -0.2812500  -0.7187500  -0.2187500), wk =   0.0058594
        k(  106) = (  -0.3437500  -0.6562500  -0.2812500), wk =   0.0058594
        k(  107) = (  -0.4062500  -0.5937500  -0.3437500), wk =   0.0058594
        k(  108) = (  -0.0312500  -0.8437500   0.0312500), wk =   0.0029297
        k(  109) = (  -0.0937500  -0.7812500  -0.0312500), wk =   0.0058594
        k(  110) = (  -0.1562500  -0.7187500  -0.0937500), wk =   0.0058594
        k(  111) = (  -0.2187500  -0.6562500  -0.1562500), wk =   0.0058594
        k(  112) = (  -0.2812500  -0.5937500  -0.2187500), wk =   0.0058594
        k(  113) = (  -0.3437500  -0.5312500  -0.2812500), wk =   0.0058594
        k(  114) = (  -0.0312500  -0.7187500   0.0312500), wk =   0.0029297
        k(  115) = (  -0.0937500  -0.6562500  -0.0312500), wk =   0.0058594
        k(  116) = (  -0.1562500  -0.5937500  -0.0937500), wk =   0.0058594
        k(  117) = (  -0.2187500  -0.5312500  -0.1562500), wk =   0.0058594
        k(  118) = (  -0.2812500  -0.4687500  -0.2187500), wk =   0.0058594
        k(  119) = (  -0.0312500  -0.5937500   0.0312500), wk =   0.0029297
        k(  120) = (  -0.0937500  -0.5312500  -0.0312500), wk =   0.0058594
        k(  121) = (  -0.1562500  -0.4687500  -0.0937500), wk =   0.0058594
        k(  122) = (  -0.2187500  -0.4062500  -0.1562500), wk =   0.0058594
        k(  123) = (  -0.0312500  -0.4687500   0.0312500), wk =   0.0029297
        k(  124) = (  -0.0937500  -0.4062500  -0.0312500), wk =   0.0058594
        k(  125) = (  -0.1562500  -0.3437500  -0.0937500), wk =   0.0058594
        k(  126) = (  -0.0312500  -0.3437500   0.0312500), wk =   0.0029297
        k(  127) = (  -0.0937500  -0.2812500  -0.0312500), wk =   0.0058594
        k(  128) = (  -0.0312500  -0.2187500   0.0312500), wk =   0.0029297
        k(  129) = (  -0.0937500   0.0937500   0.0937500), wk =   0.0009766
        k(  130) = (  -0.1562500   0.1562500   0.0312500), wk =   0.0029297
        k(  131) = (  -0.2187500   0.2187500  -0.0312500), wk =   0.0029297
        k(  132) = (  -0.2812500   0.2812500  -0.0937500), wk =   0.0029297
        k(  133) = (  -0.3437500   0.3437500  -0.1562500), wk =   0.0029297
        k(  134) = (  -0.4062500   0.4062500  -0.2187500), wk =   0.0029297
        k(  135) = (  -0.4687500   0.4687500  -0.2812500), wk =   0.0029297
        k(  136) = (   0.4687500  -0.4687500   0.6562500), wk =   0.0029297
        k(  137) = (   0.4062500  -0.4062500   0.5937500), wk =   0.0029297
        k(  138) = (   0.3437500  -0.3437500   0.5312500), wk =   0.0029297
        k(  139) = (   0.2812500  -0.2812500   0.4687500), wk =   0.0029297
        k(  140) = (   0.2187500  -0.2187500   0.4062500), wk =   0.0029297
        k(  141) = (   0.1562500  -0.1562500   0.3437500), wk =   0.0029297
        k(  142) = (   0.0937500  -0.0937500   0.2812500), wk =   0.0029297
        k(  143) = (  -0.0937500   0.2187500   0.0937500), wk =   0.0029297
        k(  144) = (  -0.1562500   0.2812500   0.0312500), wk =   0.0058594
        k(  145) = (  -0.2187500   0.3437500  -0.0312500), wk =   0.0058594
        k(  146) = (  -0.2812500   0.4062500  -0.0937500), wk =   0.0058594
        k(  147) = (  -0.3437500   0.4687500  -0.1562500), wk =   0.0058594
        k(  148) = (  -0.4062500   0.5312500  -0.2187500), wk =   0.0058594
        k(  149) = (   0.5312500  -0.4062500   0.7187500), wk =   0.0058594
        k(  150) = (   0.4687500  -0.3437500   0.6562500), wk =   0.0058594
        k(  151) = (   0.4062500  -0.2812500   0.5937500), wk =   0.0058594
        k(  152) = (   0.3437500  -0.2187500   0.5312500), wk =   0.0058594
        k(  153) = (   0.2812500  -0.1562500   0.4687500), wk =   0.0058594
        k(  154) = (   0.2187500  -0.0937500   0.4062500), wk =   0.0058594
        k(  155) = (   0.1562500  -0.0312500   0.3437500), wk =   0.0058594
        k(  156) = (  -0.0937500   0.3437500   0.0937500), wk =   0.0029297
        k(  157) = (  -0.1562500   0.4062500   0.0312500), wk =   0.0058594
        k(  158) = (  -0.2187500   0.4687500  -0.0312500), wk =   0.0058594
        k(  159) = (  -0.2812500   0.5312500  -0.0937500), wk =   0.0058594
        k(  160) = (  -0.3437500   0.5937500  -0.1562500), wk =   0.0058594
        k(  161) = (   0.5937500  -0.3437500   0.7812500), wk =   0.0058594
        k(  162) = (   0.5312500  -0.2812500   0.7187500), wk =   0.0058594
        k(  163) = (   0.4687500  -0.2187500   0.6562500), wk =   0.0058594
        k(  164) = (   0.4062500  -0.1562500   0.5937500), wk =   0.0058594
        k(  165) = (   0.3437500  -0.0937500   0.5312500), wk =   0.0058594
        k(  166) = (   0.2812500  -0.0312500   0.4687500), wk =   0.0058594
        k(  167) = (   0.2187500   0.0312500   0.4062500), wk =   0.0058594
        k(  168) = (  -0.0937500   0.4687500   0.0937500), wk =   0.0029297
        k(  169) = (  -0.1562500   0.5312500   0.0312500), wk =   0.0058594
        k(  170) = (  -0.2187500   0.5937500  -0.0312500), wk =   0.0058594
        k(  171) = (  -0.2812500   0.6562500  -0.0937500), wk =   0.0058594
        k(  172) = (   0.6562500  -0.2812500   0.8437500), wk =   0.0058594
        k(  173) = (   0.5937500  -0.2187500   0.7812500), wk =   0.0058594
        k(  174) = (   0.5312500  -0.1562500   0.7187500), wk =   0.0058594
        k(  175) = (   0.4687500  -0.0937500   0.6562500), wk =   0.0058594
        k(  176) = (   0.4062500  -0.0312500   0.5937500), wk =   0.0058594
        k(  177) = (   0.3437500   0.0312500   0.5312500), wk =   0.0058594
        k(  178) = (   0.2812500   0.0937500   0.4687500), wk =   0.0058594
        k(  179) = (  -0.0937500   0.5937500   0.0937500), wk =   0.0029297
        k(  180) = (  -0.1562500   0.6562500   0.0312500), wk =   0.0058594
        k(  181) = (  -0.2187500   0.7187500  -0.0312500), wk =   0.0058594
        k(  182) = (   0.7187500  -0.2187500   0.9062500), wk =   0.0058594
        k(  183) = (   0.6562500  -0.1562500   0.8437500), wk =   0.0058594
        k(  184) = (   0.5937500  -0.0937500   0.7812500), wk =   0.0058594
        k(  185) = (   0.5312500  -0.0312500   0.7187500), wk =   0.0058594
        k(  186) = (   0.4687500   0.0312500   0.6562500), wk =   0.0058594
        k(  187) = (   0.4062500   0.0937500   0.5937500), wk =   0.0058594
        k(  188) = (   0.3437500   0.1562500   0.5312500), wk =   0.0058594
        k(  189) = (  -0.0937500   0.7187500   0.0937500), wk =   0.0029297
        k(  190) = (  -0.1562500   0.7812500   0.0312500), wk =   0.0058594
        k(  191) = (   0.7812500  -0.1562500   0.9687500), wk =   0.0058594
        k(  192) = (   0.7187500  -0.0937500   0.9062500), wk =   0.0058594
        k(  193) = (   0.6562500  -0.0312500   0.8437500), wk =   0.0058594
        k(  194) = (   0.5937500   0.0312500   0.7812500), wk =   0.0058594
        k(  195) = (   0.5312500   0.0937500   0.7187500), wk =   0.0058594
        k(  196) = (   0.4687500   0.1562500   0.6562500), wk =   0.0058594
        k(  197) = (   0.4062500   0.2187500   0.5937500), wk =   0.0058594
        k(  198) = (  -0.0937500   0.8437500   0.0937500), wk =   0.0029297
        k(  199) = (   0.8437500  -0.0937500   1.0312500), wk =   0.0058594
        k(  200) = (   0.7812500  -0.0312500   0.9687500), wk =   0.0058594
        k(  201) = (   0.7187500   0.0312500   0.9062500), wk =   0.0058594
        k(  202) = (   0.6562500   0.0937500   0.8437500), wk =   0.0058594
        k(  203) = (   0.5937500   0.1562500   0.7812500), wk =   0.0058594
        k(  204) = (   0.5312500   0.2187500   0.7187500), wk =   0.0058594
        k(  205) = (   0.4687500   0.2812500   0.6562500), wk =   0.0058594
        k(  206) = (  -0.0937500  -1.0312500   0.0937500), wk =   0.0029297
        k(  207) = (  -0.1562500  -0.9687500   0.0312500), wk =   0.0058594
        k(  208) = (  -0.2187500  -0.9062500  -0.0312500), wk =   0.0058594
        k(  209) = (  -0.2812500  -0.8437500  -0.0937500), wk =   0.0058594
        k(  210) = (  -0.3437500  -0.7812500  -0.1562500), wk =   0.0058594
        k(  211) = (  -0.4062500  -0.7187500  -0.2187500), wk =   0.0058594
        k(  212) = (  -0.0937500  -0.9062500   0.0937500), wk =   0.0029297
        k(  213) = (  -0.1562500  -0.8437500   0.0312500), wk =   0.0058594
        k(  214) = (  -0.2187500  -0.7812500  -0.0312500), wk =   0.0058594
        k(  215) = (  -0.2812500  -0.7187500  -0.0937500), wk =   0.0058594
        k(  216) = (  -0.3437500  -0.6562500  -0.1562500), wk =   0.0058594
        k(  217) = (  -0.0937500  -0.7812500   0.0937500), wk =   0.0029297
        k(  218) = (  -0.1562500  -0.7187500   0.0312500), wk =   0.0058594
        k(  219) = (  -0.2187500  -0.6562500  -0.0312500), wk =   0.0058594
        k(  220) = (  -0.2812500  -0.5937500  -0.0937500), wk =   0.0058594
        k(  221) = (  -0.0937500  -0.6562500   0.0937500), wk =   0.0029297
        k(  222) = (  -0.1562500  -0.5937500   0.0312500), wk =   0.0058594
        k(  223) = (  -0.2187500  -0.5312500  -0.0312500), wk =   0.0058594
        k(  224) = (  -0.0937500  -0.5312500   0.0937500), wk =   0.0029297
        k(  225) = (  -0.1562500  -0.4687500   0.0312500), wk =   0.0058594
        k(  226) = (  -0.0937500  -0.4062500   0.0937500), wk =   0.0029297
        k(  227) = (  -0.1562500   0.1562500   0.1562500), wk =   0.0009766
        k(  228) = (  -0.2187500   0.2187500   0.0937500), wk =   0.0029297
        k(  229) = (  -0.2812500   0.2812500   0.0312500), wk =   0.0029297
        k(  230) = (  -0.3437500   0.3437500  -0.0312500), wk =   0.0029297
        k(  231) = (  -0.4062500   0.4062500  -0.0937500), wk =   0.0029297
        k(  232) = (  -0.4687500   0.4687500  -0.1562500), wk =   0.0029297
        k(  233) = (   0.4687500  -0.4687500   0.7812500), wk =   0.0029297
        k(  234) = (   0.4062500  -0.4062500   0.7187500), wk =   0.0029297
        k(  235) = (   0.3437500  -0.3437500   0.6562500), wk =   0.0029297
        k(  236) = (   0.2812500  -0.2812500   0.5937500), wk =   0.0029297
        k(  237) = (   0.2187500  -0.2187500   0.5312500), wk =   0.0029297
        k(  238) = (   0.1562500  -0.1562500   0.4687500), wk =   0.0029297
        k(  239) = (  -0.1562500   0.2812500   0.1562500), wk =   0.0029297
        k(  240) = (  -0.2187500   0.3437500   0.0937500), wk =   0.0058594
        k(  241) = (  -0.2812500   0.4062500   0.0312500), wk =   0.0058594
        k(  242) = (  -0.3437500   0.4687500  -0.0312500), wk =   0.0058594
        k(  243) = (  -0.4062500   0.5312500  -0.0937500), wk =   0.0058594
        k(  244) = (   0.5312500  -0.4062500   0.8437500), wk =   0.0058594
        k(  245) = (   0.4687500  -0.3437500   0.7812500), wk =   0.0058594
        k(  246) = (   0.4062500  -0.2812500   0.7187500), wk =   0.0058594
        k(  247) = (   0.3437500  -0.2187500   0.6562500), wk =   0.0058594
        k(  248) = (   0.2812500  -0.1562500   0.5937500), wk =   0.0058594
        k(  249) = (   0.2187500  -0.0937500   0.5312500), wk =   0.0058594
        k(  250) = (  -0.1562500   0.4062500   0.1562500), wk =   0.0029297
        k(  251) = (  -0.2187500   0.4687500   0.0937500), wk =   0.0058594
        k(  252) = (  -0.2812500   0.5312500   0.0312500), wk =   0.0058594
        k(  253) = (  -0.3437500   0.5937500  -0.0312500), wk =   0.0058594
        k(  254) = (   0.5937500  -0.3437500   0.9062500), wk =   0.0058594
        k(  255) = (   0.5312500  -0.2812500   0.8437500), wk =   0.0058594
        k(  256) = (   0.4687500  -0.2187500   0.7812500), wk =   0.0058594
        k(  257) = (   0.4062500  -0.1562500   0.7187500), wk =   0.0058594
        k(  258) = (   0.3437500  -0.0937500   0.6562500), wk =   0.0058594
        k(  259) = (   0.2812500  -0.0312500   0.5937500), wk =   0.0058594
        k(  260) = (  -0.1562500   0.5312500   0.1562500), wk =   0.0029297
        k(  261) = (  -0.2187500   0.5937500   0.0937500), wk =   0.0058594
        k(  262) = (  -0.2812500   0.6562500   0.0312500), wk =   0.0058594
        k(  263) = (   0.6562500  -0.2812500   0.9687500), wk =   0.0058594
        k(  264) = (   0.5937500  -0.2187500   0.9062500), wk =   0.0058594
        k(  265) = (   0.5312500  -0.1562500   0.8437500), wk =   0.0058594
        k(  266) = (   0.4687500  -0.0937500   0.7812500), wk =   0.0058594
        k(  267) = (   0.4062500  -0.0312500   0.7187500), wk =   0.0058594
        k(  268) = (   0.3437500   0.0312500   0.6562500), wk =   0.0058594
        k(  269) = (  -0.1562500   0.6562500   0.1562500), wk =   0.0029297
        k(  270) = (  -0.2187500   0.7187500   0.0937500), wk =   0.0058594
        k(  271) = (   0.7187500  -0.2187500   1.0312500), wk =   0.0058594
        k(  272) = (   0.6562500  -0.1562500   0.9687500), wk =   0.0058594
        k(  273) = (   0.5937500  -0.0937500   0.9062500), wk =   0.0058594
        k(  274) = (   0.5312500  -0.0312500   0.8437500), wk =   0.0058594
        k(  275) = (   0.4687500   0.0312500   0.7812500), wk =   0.0058594
        k(  276) = (   0.4062500   0.0937500   0.7187500), wk =   0.0058594
        k(  277) = (  -0.1562500   0.7812500   0.1562500), wk =   0.0029297
        k(  278) = (   0.7812500  -0.1562500   1.0937500), wk =   0.0058594
        k(  279) = (   0.7187500  -0.0937500   1.0312500), wk =   0.0058594
        k(  280) = (   0.6562500  -0.0312500   0.9687500), wk =   0.0058594
        k(  281) = (   0.5937500   0.0312500   0.9062500), wk =   0.0058594
        k(  282) = (   0.5312500   0.0937500   0.8437500), wk =   0.0058594
        k(  283) = (   0.4687500   0.1562500   0.7812500), wk =   0.0058594
        k(  284) = (  -0.1562500  -1.0937500   0.1562500), wk =   0.0029297
        k(  285) = (  -0.2187500  -1.0312500   0.0937500), wk =   0.0058594
        k(  286) = (  -0.2812500  -0.9687500   0.0312500), wk =   0.0058594
        k(  287) = (  -0.3437500  -0.9062500  -0.0312500), wk =   0.0058594
        k(  288) = (  -0.4062500  -0.8437500  -0.0937500), wk =   0.0058594
        k(  289) = (  -0.1562500  -0.9687500   0.1562500), wk =   0.0029297
        k(  290) = (  -0.2187500  -0.9062500   0.0937500), wk =   0.0058594
        k(  291) = (  -0.2812500  -0.8437500   0.0312500), wk =   0.0058594
        k(  292) = (  -0.3437500  -0.7812500  -0.0312500), wk =   0.0058594
        k(  293) = (  -0.1562500  -0.8437500   0.1562500), wk =   0.0029297
        k(  294) = (  -0.2187500  -0.7812500   0.0937500), wk =   0.0058594
        k(  295) = (  -0.2812500  -0.7187500   0.0312500), wk =   0.0058594
        k(  296) = (  -0.1562500  -0.7187500   0.1562500), wk =   0.0029297
        k(  297) = (  -0.2187500  -0.6562500   0.0937500), wk =   0.0058594
        k(  298) = (  -0.1562500  -0.5937500   0.1562500), wk =   0.0029297
        k(  299) = (  -0.2187500   0.2187500   0.2187500), wk =   0.0009766
        k(  300) = (  -0.2812500   0.2812500   0.1562500), wk =   0.0029297
        k(  301) = (  -0.3437500   0.3437500   0.0937500), wk =   0.0029297
        k(  302) = (  -0.4062500   0.4062500   0.0312500), wk =   0.0029297
        k(  303) = (  -0.4687500   0.4687500  -0.0312500), wk =   0.0029297
        k(  304) = (   0.4687500  -0.4687500   0.9062500), wk =   0.0029297
        k(  305) = (   0.4062500  -0.4062500   0.8437500), wk =   0.0029297
        k(  306) = (   0.3437500  -0.3437500   0.7812500), wk =   0.0029297
        k(  307) = (   0.2812500  -0.2812500   0.7187500), wk =   0.0029297
        k(  308) = (   0.2187500  -0.2187500   0.6562500), wk =   0.0029297
        k(  309) = (  -0.2187500   0.3437500   0.2187500), wk =   0.0029297
        k(  310) = (  -0.2812500   0.4062500   0.1562500), wk =   0.0058594
        k(  311) = (  -0.3437500   0.4687500   0.0937500), wk =   0.0058594
        k(  312) = (  -0.4062500   0.5312500   0.0312500), wk =   0.0058594
        k(  313) = (   0.5312500  -0.4062500   0.9687500), wk =   0.0058594
        k(  314) = (   0.4687500  -0.3437500   0.9062500), wk =   0.0058594
        k(  315) = (   0.4062500  -0.2812500   0.8437500), wk =   0.0058594
        k(  316) = (   0.3437500  -0.2187500   0.7812500), wk =   0.0058594
        k(  317) = (   0.2812500  -0.1562500   0.7187500), wk =   0.0058594
        k(  318) = (  -0.2187500   0.4687500   0.2187500), wk =   0.0029297
        k(  319) = (  -0.2812500   0.5312500   0.1562500), wk =   0.0058594
        k(  320) = (  -0.3437500   0.5937500   0.0937500), wk =   0.0058594
        k(  321) = (   0.5937500  -0.3437500   1.0312500), wk =   0.0058594
        k(  322) = (   0.5312500  -0.2812500   0.9687500), wk =   0.0058594
        k(  323) = (   0.4687500  -0.2187500   0.9062500), wk =   0.0058594
        k(  324) = (   0.4062500  -0.1562500   0.8437500), wk =   0.0058594
        k(  325) = (   0.3437500  -0.0937500   0.7812500), wk =   0.0058594
        k(  326) = (  -0.2187500   0.5937500   0.2187500), wk =   0.0029297
        k(  327) = (  -0.2812500   0.6562500   0.1562500), wk =   0.0058594
        k(  328) = (   0.6562500  -0.2812500   1.0937500), wk =   0.0058594
        k(  329) = (   0.5937500  -0.2187500   1.0312500), wk =   0.0058594
        k(  330) = (   0.5312500  -0.1562500   0.9687500), wk =   0.0058594
        k(  331) = (   0.4687500  -0.0937500   0.9062500), wk =   0.0058594
        k(  332) = (   0.4062500  -0.0312500   0.8437500), wk =   0.0058594
        k(  333) = (  -0.2187500   0.7187500   0.2187500), wk =   0.0029297
        k(  334) = (   0.7187500  -0.2187500   1.1562500), wk =   0.0058594
        k(  335) = (   0.6562500  -0.1562500   1.0937500), wk =   0.0058594
        k(  336) = (   0.5937500  -0.0937500   1.0312500), wk =   0.0058594
        k(  337) = (   0.5312500  -0.0312500   0.9687500), wk =   0.0058594
        k(  338) = (   0.4687500   0.0312500   0.9062500), wk =   0.0058594
        k(  339) = (  -0.2187500  -1.1562500   0.2187500), wk =   0.0029297
        k(  340) = (  -0.2812500  -1.0937500   0.1562500), wk =   0.0058594
        k(  341) = (  -0.3437500  -1.0312500   0.0937500), wk =   0.0058594
        k(  342) = (  -0.4062500  -0.9687500   0.0312500), wk =   0.0058594
        k(  343) = (  -0.2187500  -1.0312500   0.2187500), wk =   0.0029297
        k(  344) = (  -0.2812500  -0.9687500   0.1562500), wk =   0.0058594
        k(  345) = (  -0.3437500  -0.9062500   0.0937500), wk =   0.0058594
        k(  346) = (  -0.2187500  -0.9062500   0.2187500), wk =   0.0029297
        k(  347) = (  -0.2812500  -0.8437500   0.1562500), wk =   0.0058594
        k(  348) = (  -0.2187500  -0.7812500   0.2187500), wk =   0.0029297
        k(  349) = (  -0.2812500   0.2812500   0.2812500), wk =   0.0009766
        k(  350) = (  -0.3437500   0.3437500   0.2187500), wk =   0.0029297
        k(  351) = (  -0.4062500   0.4062500   0.1562500), wk =   0.0029297
        k(  352) = (  -0.4687500   0.4687500   0.0937500), wk =   0.0029297
        k(  353) = (   0.4687500  -0.4687500   1.0312500), wk =   0.0029297
        k(  354) = (   0.4062500  -0.4062500   0.9687500), wk =   0.0029297
        k(  355) = (   0.3437500  -0.3437500   0.9062500), wk =   0.0029297
        k(  356) = (   0.2812500  -0.2812500   0.8437500), wk =   0.0029297
        k(  357) = (  -0.2812500   0.4062500   0.2812500), wk =   0.0029297
        k(  358) = (  -0.3437500   0.4687500   0.2187500), wk =   0.0058594
        k(  359) = (  -0.4062500   0.5312500   0.1562500), wk =   0.0058594
        k(  360) = (   0.5312500  -0.4062500   1.0937500), wk =   0.0058594
        k(  361) = (   0.4687500  -0.3437500   1.0312500), wk =   0.0058594
        k(  362) = (   0.4062500  -0.2812500   0.9687500), wk =   0.0058594
        k(  363) = (   0.3437500  -0.2187500   0.9062500), wk =   0.0058594
        k(  364) = (  -0.2812500   0.5312500   0.2812500), wk =   0.0029297
        k(  365) = (  -0.3437500   0.5937500   0.2187500), wk =   0.0058594
        k(  366) = (   0.5937500  -0.3437500   1.1562500), wk =   0.0058594
        k(  367) = (   0.5312500  -0.2812500   1.0937500), wk =   0.0058594
        k(  368) = (   0.4687500  -0.2187500   1.0312500), wk =   0.0058594
        k(  369) = (   0.4062500  -0.1562500   0.9687500), wk =   0.0058594
        k(  370) = (  -0.2812500   0.6562500   0.2812500), wk =   0.0029297
        k(  371) = (   0.6562500  -0.2812500   1.2187500), wk =   0.0058594
        k(  372) = (   0.5937500  -0.2187500   1.1562500), wk =   0.0058594
        k(  373) = (   0.5312500  -0.1562500   1.0937500), wk =   0.0058594
        k(  374) = (   0.4687500  -0.0937500   1.0312500), wk =   0.0058594
        k(  375) = (  -0.2812500  -1.2187500   0.2812500), wk =   0.0029297
        k(  376) = (  -0.3437500  -1.1562500   0.2187500), wk =   0.0058594
        k(  377) = (  -0.4062500  -1.0937500   0.1562500), wk =   0.0058594
        k(  378) = (  -0.2812500  -1.0937500   0.2812500), wk =   0.0029297
        k(  379) = (  -0.3437500  -1.0312500   0.2187500), wk =   0.0058594
        k(  380) = (  -0.2812500  -0.9687500   0.2812500), wk =   0.0029297
        k(  381) = (  -0.3437500   0.3437500   0.3437500), wk =   0.0009766
        k(  382) = (  -0.4062500   0.4062500   0.2812500), wk =   0.0029297
        k(  383) = (  -0.4687500   0.4687500   0.2187500), wk =   0.0029297
        k(  384) = (   0.4687500  -0.4687500   1.1562500), wk =   0.0029297
        k(  385) = (   0.4062500  -0.4062500   1.0937500), wk =   0.0029297
        k(  386) = (   0.3437500  -0.3437500   1.0312500), wk =   0.0029297
        k(  387) = (  -0.3437500   0.4687500   0.3437500), wk =   0.0029297
        k(  388) = (  -0.4062500   0.5312500   0.2812500), wk =   0.0058594
        k(  389) = (   0.5312500  -0.4062500   1.2187500), wk =   0.0058594
        k(  390) = (   0.4687500  -0.3437500   1.1562500), wk =   0.0058594
        k(  391) = (   0.4062500  -0.2812500   1.0937500), wk =   0.0058594
        k(  392) = (  -0.3437500   0.5937500   0.3437500), wk =   0.0029297
        k(  393) = (   0.5937500  -0.3437500   1.2812500), wk =   0.0058594
        k(  394) = (   0.5312500  -0.2812500   1.2187500), wk =   0.0058594
        k(  395) = (   0.4687500  -0.2187500   1.1562500), wk =   0.0058594
        k(  396) = (  -0.3437500  -1.2812500   0.3437500), wk =   0.0029297
        k(  397) = (  -0.4062500  -1.2187500   0.2812500), wk =   0.0058594
        k(  398) = (  -0.3437500  -1.1562500   0.3437500), wk =   0.0029297
        k(  399) = (  -0.4062500   0.4062500   0.4062500), wk =   0.0009766
        k(  400) = (  -0.4687500   0.4687500   0.3437500), wk =   0.0029297
        k(  401) = (   0.4687500  -0.4687500   1.2812500), wk =   0.0029297
        k(  402) = (   0.4062500  -0.4062500   1.2187500), wk =   0.0029297
        k(  403) = (  -0.4062500   0.5312500   0.4062500), wk =   0.0029297
        k(  404) = (   0.5312500  -0.4062500   1.3437500), wk =   0.0058594
        k(  405) = (   0.4687500  -0.3437500   1.2812500), wk =   0.0058594
        k(  406) = (  -0.4062500  -1.3437500   0.4062500), wk =   0.0029297
        k(  407) = (  -0.4687500   0.4687500   0.4687500), wk =   0.0009766
        k(  408) = (   0.4687500  -0.4687500   1.4062500), wk =   0.0029297

                       cryst. coord.
        k(    1) = (   0.0312500   0.0312500   0.0312500), wk =   0.0009766
        k(    2) = (   0.0312500   0.0312500   0.0937500), wk =   0.0029297
        k(    3) = (   0.0312500   0.0312500   0.1562500), wk =   0.0029297
        k(    4) = (   0.0312500   0.0312500   0.2187500), wk =   0.0029297
        k(    5) = (   0.0312500   0.0312500   0.2812500), wk =   0.0029297
        k(    6) = (   0.0312500   0.0312500   0.3437500), wk =   0.0029297
        k(    7) = (   0.0312500   0.0312500   0.4062500), wk =   0.0029297
        k(    8) = (   0.0312500   0.0312500   0.4687500), wk =   0.0029297
        k(    9) = (   0.0312500   0.0312500  -0.4687500), wk =   0.0029297
        k(   10) = (   0.0312500   0.0312500  -0.4062500), wk =   0.0029297
        k(   11) = (   0.0312500   0.0312500  -0.3437500), wk =   0.0029297
        k(   12) = (   0.0312500   0.0312500  -0.2812500), wk =   0.0029297
        k(   13) = (   0.0312500   0.0312500  -0.2187500), wk =   0.0029297
        k(   14) = (   0.0312500   0.0312500  -0.1562500), wk =   0.0029297
        k(   15) = (   0.0312500   0.0312500  -0.0937500), wk =   0.0029297
        k(   16) = (   0.0312500   0.0312500  -0.0312500), wk =   0.0029297
        k(   17) = (   0.0312500   0.0937500   0.0937500), wk =   0.0029297
        k(   18) = (   0.0312500   0.0937500   0.1562500), wk =   0.0058594
        k(   19) = (   0.0312500   0.0937500   0.2187500), wk =   0.0058594
        k(   20) = (   0.0312500   0.0937500   0.2812500), wk =   0.0058594
        k(   21) = (   0.0312500   0.0937500   0.3437500), wk =   0.0058594
        k(   22) = (   0.0312500   0.0937500   0.4062500), wk =   0.0058594
        k(   23) = (   0.0312500   0.0937500   0.4687500), wk =   0.0058594
        k(   24) = (   0.0312500   0.0937500  -0.4687500), wk =   0.0058594
        k(   25) = (   0.0312500   0.0937500  -0.4062500), wk =   0.0058594
        k(   26) = (   0.0312500   0.0937500  -0.3437500), wk =   0.0058594
        k(   27) = (   0.0312500   0.0937500  -0.2812500), wk =   0.0058594
        k(   28) = (   0.0312500   0.0937500  -0.2187500), wk =   0.0058594
        k(   29) = (   0.0312500   0.0937500  -0.1562500), wk =   0.0058594
        k(   30) = (   0.0312500   0.0937500  -0.0937500), wk =   0.0058594
        k(   31) = (   0.0312500   0.0937500  -0.0312500), wk =   0.0058594
        k(   32) = (   0.0312500   0.1562500   0.1562500), wk =   0.0029297
        k(   33) = (   0.0312500   0.1562500   0.2187500), wk =   0.0058594
        k(   34) = (   0.0312500   0.1562500   0.2812500), wk =   0.0058594
        k(   35) = (   0.0312500   0.1562500   0.3437500), wk =   0.0058594
        k(   36) = (   0.0312500   0.1562500   0.4062500), wk =   0.0058594
        k(   37) = (   0.0312500   0.1562500   0.4687500), wk =   0.0058594
        k(   38) = (   0.0312500   0.1562500  -0.4687500), wk =   0.0058594
        k(   39) = (   0.0312500   0.1562500  -0.4062500), wk =   0.0058594
        k(   40) = (   0.0312500   0.1562500  -0.3437500), wk =   0.0058594
        k(   41) = (   0.0312500   0.1562500  -0.2812500), wk =   0.0058594
        k(   42) = (   0.0312500   0.1562500  -0.2187500), wk =   0.0058594
        k(   43) = (   0.0312500   0.1562500  -0.1562500), wk =   0.0058594
        k(   44) = (   0.0312500   0.1562500  -0.0937500), wk =   0.0058594
        k(   45) = (   0.0312500   0.1562500  -0.0312500), wk =   0.0058594
        k(   46) = (   0.0312500   0.2187500   0.2187500), wk =   0.0029297
        k(   47) = (   0.0312500   0.2187500   0.2812500), wk =   0.0058594
        k(   48) = (   0.0312500   0.2187500   0.3437500), wk =   0.0058594
        k(   49) = (   0.0312500   0.2187500   0.4062500), wk =   0.0058594
        k(   50) = (   0.0312500   0.2187500   0.4687500), wk =   0.0058594
        k(   51) = (   0.0312500   0.2187500  -0.4687500), wk =   0.0058594
        k(   52) = (   0.0312500   0.2187500  -0.4062500), wk =   0.0058594
        k(   53) = (   0.0312500   0.2187500  -0.3437500), wk =   0.0058594
        k(   54) = (   0.0312500   0.2187500  -0.2812500), wk =   0.0058594
        k(   55) = (   0.0312500   0.2187500  -0.2187500), wk =   0.0058594
        k(   56) = (   0.0312500   0.2187500  -0.1562500), wk =   0.0058594
        k(   57) = (   0.0312500   0.2187500  -0.0937500), wk =   0.0058594
        k(   58) = (   0.0312500   0.2187500  -0.0312500), wk =   0.0058594
        k(   59) = (   0.0312500   0.2812500   0.2812500), wk =   0.0029297
        k(   60) = (   0.0312500   0.2812500   0.3437500), wk =   0.0058594
        k(   61) = (   0.0312500   0.2812500   0.4062500), wk =   0.0058594
        k(   62) = (   0.0312500   0.2812500   0.4687500), wk =   0.0058594
        k(   63) = (   0.0312500   0.2812500  -0.4687500), wk =   0.0058594
        k(   64) = (   0.0312500   0.2812500  -0.4062500), wk =   0.0058594
        k(   65) = (   0.0312500   0.2812500  -0.3437500), wk =   0.0058594
        k(   66) = (   0.0312500   0.2812500  -0.2812500), wk =   0.0058594
        k(   67) = (   0.0312500   0.2812500  -0.2187500), wk =   0.0058594
        k(   68) = (   0.0312500   0.2812500  -0.1562500), wk =   0.0058594
        k(   69) = (   0.0312500   0.2812500  -0.0937500), wk =   0.0058594
        k(   70) = (   0.0312500   0.2812500  -0.0312500), wk =   0.0058594
        k(   71) = (   0.0312500   0.3437500   0.3437500), wk =   0.0029297
        k(   72) = (   0.0312500   0.3437500   0.4062500), wk =   0.0058594
        k(   73) = (   0.0312500   0.3437500   0.4687500), wk =   0.0058594
        k(   74) = (   0.0312500   0.3437500  -0.4687500), wk =   0.0058594
        k(   75) = (   0.0312500   0.3437500  -0.4062500), wk =   0.0058594
        k(   76) = (   0.0312500   0.3437500  -0.3437500), wk =   0.0058594
        k(   77) = (   0.0312500   0.3437500  -0.2812500), wk =   0.0058594
        k(   78) = (   0.0312500   0.3437500  -0.2187500), wk =   0.0058594
        k(   79) = (   0.0312500   0.3437500  -0.1562500), wk =   0.0058594
        k(   80) = (   0.0312500   0.3437500  -0.0937500), wk =   0.0058594
        k(   81) = (   0.0312500   0.3437500  -0.0312500), wk =   0.0058594
        k(   82) = (   0.0312500   0.4062500   0.4062500), wk =   0.0029297
        k(   83) = (   0.0312500   0.4062500   0.4687500), wk =   0.0058594
        k(   84) = (   0.0312500   0.4062500  -0.4687500), wk =   0.0058594
        k(   85) = (   0.0312500   0.4062500  -0.4062500), wk =   0.0058594
        k(   86) = (   0.0312500   0.4062500  -0.3437500), wk =   0.0058594
        k(   87) = (   0.0312500   0.4062500  -0.2812500), wk =   0.0058594
        k(   88) = (   0.0312500   0.4062500  -0.2187500), wk =   0.0058594
        k(   89) = (   0.0312500   0.4062500  -0.1562500), wk =   0.0058594
        k(   90) = (   0.0312500   0.4062500  -0.0937500), wk =   0.0058594
        k(   91) = (   0.0312500   0.4062500  -0.0312500), wk =   0.0058594
        k(   92) = (   0.0312500   0.4687500   0.4687500), wk =   0.0029297
        k(   93) = (   0.0312500   0.4687500  -0.4687500), wk =   0.0058594
        k(   94) = (   0.0312500   0.4687500  -0.4062500), wk =   0.0058594
        k(   95) = (   0.0312500   0.4687500  -0.3437500), wk =   0.0058594
        k(   96) = (   0.0312500   0.4687500  -0.2812500), wk =   0.0058594
        k(   97) = (   0.0312500   0.4687500  -0.2187500), wk =   0.0058594
        k(   98) = (   0.0312500   0.4687500  -0.1562500), wk =   0.0058594
        k(   99) = (   0.0312500   0.4687500  -0.0937500), wk =   0.0058594
        k(  100) = (   0.0312500   0.4687500  -0.0312500), wk =   0.0058594
        k(  101) = (   0.0312500  -0.4687500  -0.4687500), wk =   0.0029297
        k(  102) = (   0.0312500  -0.4687500  -0.4062500), wk =   0.0058594
        k(  103) = (   0.0312500  -0.4687500  -0.3437500), wk =   0.0058594
        k(  104) = (   0.0312500  -0.4687500  -0.2812500), wk =   0.0058594
        k(  105) = (   0.0312500  -0.4687500  -0.2187500), wk =   0.0058594
        k(  106) = (   0.0312500  -0.4687500  -0.1562500), wk =   0.0058594
        k(  107) = (   0.0312500  -0.4687500  -0.0937500), wk =   0.0058594
        k(  108) = (   0.0312500  -0.4062500  -0.4062500), wk =   0.0029297
        k(  109) = (   0.0312500  -0.4062500  -0.3437500), wk =   0.0058594
        k(  110) = (   0.0312500  -0.4062500  -0.2812500), wk =   0.0058594
        k(  111) = (   0.0312500  -0.4062500  -0.2187500), wk =   0.0058594
        k(  112) = (   0.0312500  -0.4062500  -0.1562500), wk =   0.0058594
        k(  113) = (   0.0312500  -0.4062500  -0.0937500), wk =   0.0058594
        k(  114) = (   0.0312500  -0.3437500  -0.3437500), wk =   0.0029297
        k(  115) = (   0.0312500  -0.3437500  -0.2812500), wk =   0.0058594
        k(  116) = (   0.0312500  -0.3437500  -0.2187500), wk =   0.0058594
        k(  117) = (   0.0312500  -0.3437500  -0.1562500), wk =   0.0058594
        k(  118) = (   0.0312500  -0.3437500  -0.0937500), wk =   0.0058594
        k(  119) = (   0.0312500  -0.2812500  -0.2812500), wk =   0.0029297
        k(  120) = (   0.0312500  -0.2812500  -0.2187500), wk =   0.0058594
        k(  121) = (   0.0312500  -0.2812500  -0.1562500), wk =   0.0058594
        k(  122) = (   0.0312500  -0.2812500  -0.0937500), wk =   0.0058594
        k(  123) = (   0.0312500  -0.2187500  -0.2187500), wk =   0.0029297
        k(  124) = (   0.0312500  -0.2187500  -0.1562500), wk =   0.0058594
        k(  125) = (   0.0312500  -0.2187500  -0.0937500), wk =   0.0058594
        k(  126) = (   0.0312500  -0.1562500  -0.1562500), wk =   0.0029297
        k(  127) = (   0.0312500  -0.1562500  -0.0937500), wk =   0.0058594
        k(  128) = (   0.0312500  -0.0937500  -0.0937500), wk =   0.0029297
        k(  129) = (   0.0937500   0.0937500   0.0937500), wk =   0.0009766
        k(  130) = (   0.0937500   0.0937500   0.1562500), wk =   0.0029297
        k(  131) = (   0.0937500   0.0937500   0.2187500), wk =   0.0029297
        k(  132) = (   0.0937500   0.0937500   0.2812500), wk =   0.0029297
        k(  133) = (   0.0937500   0.0937500   0.3437500), wk =   0.0029297
        k(  134) = (   0.0937500   0.0937500   0.4062500), wk =   0.0029297
        k(  135) = (   0.0937500   0.0937500   0.4687500), wk =   0.0029297
        k(  136) = (   0.0937500   0.0937500  -0.4687500), wk =   0.0029297
        k(  137) = (   0.0937500   0.0937500  -0.4062500), wk =   0.0029297
        k(  138) = (   0.0937500   0.0937500  -0.3437500), wk =   0.0029297
        k(  139) = (   0.0937500   0.0937500  -0.2812500), wk =   0.0029297
        k(  140) = (   0.0937500   0.0937500  -0.2187500), wk =   0.0029297
        k(  141) = (   0.0937500   0.0937500  -0.1562500), wk =   0.0029297
        k(  142) = (   0.0937500   0.0937500  -0.0937500), wk =   0.0029297
        k(  143) = (   0.0937500   0.1562500   0.1562500), wk =   0.0029297
        k(  144) = (   0.0937500   0.1562500   0.2187500), wk =   0.0058594
        k(  145) = (   0.0937500   0.1562500   0.2812500), wk =   0.0058594
        k(  146) = (   0.0937500   0.1562500   0.3437500), wk =   0.0058594
        k(  147) = (   0.0937500   0.1562500   0.4062500), wk =   0.0058594
        k(  148) = (   0.0937500   0.1562500   0.4687500), wk =   0.0058594
        k(  149) = (   0.0937500   0.1562500  -0.4687500), wk =   0.0058594
        k(  150) = (   0.0937500   0.1562500  -0.4062500), wk =   0.0058594
        k(  151) = (   0.0937500   0.1562500  -0.3437500), wk =   0.0058594
        k(  152) = (   0.0937500   0.1562500  -0.2812500), wk =   0.0058594
        k(  153) = (   0.0937500   0.1562500  -0.2187500), wk =   0.0058594
        k(  154) = (   0.0937500   0.1562500  -0.1562500), wk =   0.0058594
        k(  155) = (   0.0937500   0.1562500  -0.0937500), wk =   0.0058594
        k(  156) = (   0.0937500   0.2187500   0.2187500), wk =   0.0029297
        k(  157) = (   0.0937500   0.2187500   0.2812500), wk =   0.0058594
        k(  158) = (   0.0937500   0.2187500   0.3437500), wk =   0.0058594
        k(  159) = (   0.0937500   0.2187500   0.4062500), wk =   0.0058594
        k(  160) = (   0.0937500   0.2187500   0.4687500), wk =   0.0058594
        k(  161) = (   0.0937500   0.2187500  -0.4687500), wk =   0.0058594
        k(  162) = (   0.0937500   0.2187500  -0.4062500), wk =   0.0058594
        k(  163) = (   0.0937500   0.2187500  -0.3437500), wk =   0.0058594
        k(  164) = (   0.0937500   0.2187500  -0.2812500), wk =   0.0058594
        k(  165) = (   0.0937500   0.2187500  -0.2187500), wk =   0.0058594
        k(  166) = (   0.0937500   0.2187500  -0.1562500), wk =   0.0058594
        k(  167) = (   0.0937500   0.2187500  -0.0937500), wk =   0.0058594
        k(  168) = (   0.0937500   0.2812500   0.2812500), wk =   0.0029297
        k(  169) = (   0.0937500   0.2812500   0.3437500), wk =   0.0058594
        k(  170) = (   0.0937500   0.2812500   0.4062500), wk =   0.0058594
        k(  171) = (   0.0937500   0.2812500   0.4687500), wk =   0.0058594
        k(  172) = (   0.0937500   0.2812500  -0.4687500), wk =   0.0058594
        k(  173) = (   0.0937500   0.2812500  -0.4062500), wk =   0.0058594
        k(  174) = (   0.0937500   0.2812500  -0.3437500), wk =   0.0058594
        k(  175) = (   0.0937500   0.2812500  -0.2812500), wk =   0.0058594
        k(  176) = (   0.0937500   0.2812500  -0.2187500), wk =   0.0058594
        k(  177) = (   0.0937500   0.2812500  -0.1562500), wk =   0.0058594
        k(  178) = (   0.0937500   0.2812500  -0.0937500), wk =   0.0058594
        k(  179) = (   0.0937500   0.3437500   0.3437500), wk =   0.0029297
        k(  180) = (   0.0937500   0.3437500   0.4062500), wk =   0.0058594
        k(  181) = (   0.0937500   0.3437500   0.4687500), wk =   0.0058594
        k(  182) = (   0.0937500   0.3437500  -0.4687500), wk =   0.0058594
        k(  183) = (   0.0937500   0.3437500  -0.4062500), wk =   0.0058594
        k(  184) = (   0.0937500   0.3437500  -0.3437500), wk =   0.0058594
        k(  185) = (   0.0937500   0.3437500  -0.2812500), wk =   0.0058594
        k(  186) = (   0.0937500   0.3437500  -0.2187500), wk =   0.0058594
        k(  187) = (   0.0937500   0.3437500  -0.1562500), wk =   0.0058594
        k(  188) = (   0.0937500   0.3437500  -0.0937500), wk =   0.0058594
        k(  189) = (   0.0937500   0.4062500   0.4062500), wk =   0.0029297
        k(  190) = (   0.0937500   0.4062500   0.4687500), wk =   0.0058594
        k(  191) = (   0.0937500   0.4062500  -0.4687500), wk =   0.0058594
        k(  192) = (   0.0937500   0.4062500  -0.4062500), wk =   0.0058594
        k(  193) = (   0.0937500   0.4062500  -0.3437500), wk =   0.0058594
        k(  194) = (   0.0937500   0.4062500  -0.2812500), wk =   0.0058594
        k(  195) = (   0.0937500   0.4062500  -0.2187500), wk =   0.0058594
        k(  196) = (   0.0937500   0.4062500  -0.1562500), wk =   0.0058594
        k(  197) = (   0.0937500   0.4062500  -0.0937500), wk =   0.0058594
        k(  198) = (   0.0937500   0.4687500   0.4687500), wk =   0.0029297
        k(  199) = (   0.0937500   0.4687500  -0.4687500), wk =   0.0058594
        k(  200) = (   0.0937500   0.4687500  -0.4062500), wk =   0.0058594
        k(  201) = (   0.0937500   0.4687500  -0.3437500), wk =   0.0058594
        k(  202) = (   0.0937500   0.4687500  -0.2812500), wk =   0.0058594
        k(  203) = (   0.0937500   0.4687500  -0.2187500), wk =   0.0058594
        k(  204) = (   0.0937500   0.4687500  -0.1562500), wk =   0.0058594
        k(  205) = (   0.0937500   0.4687500  -0.0937500), wk =   0.0058594
        k(  206) = (   0.0937500  -0.4687500  -0.4687500), wk =   0.0029297
        k(  207) = (   0.0937500  -0.4687500  -0.4062500), wk =   0.0058594
        k(  208) = (   0.0937500  -0.4687500  -0.3437500), wk =   0.0058594
        k(  209) = (   0.0937500  -0.4687500  -0.2812500), wk =   0.0058594
        k(  210) = (   0.0937500  -0.4687500  -0.2187500), wk =   0.0058594
        k(  211) = (   0.0937500  -0.4687500  -0.1562500), wk =   0.0058594
        k(  212) = (   0.0937500  -0.4062500  -0.4062500), wk =   0.0029297
        k(  213) = (   0.0937500  -0.4062500  -0.3437500), wk =   0.0058594
        k(  214) = (   0.0937500  -0.4062500  -0.2812500), wk =   0.0058594
        k(  215) = (   0.0937500  -0.4062500  -0.2187500), wk =   0.0058594
        k(  216) = (   0.0937500  -0.4062500  -0.1562500), wk =   0.0058594
        k(  217) = (   0.0937500  -0.3437500  -0.3437500), wk =   0.0029297
        k(  218) = (   0.0937500  -0.3437500  -0.2812500), wk =   0.0058594
        k(  219) = (   0.0937500  -0.3437500  -0.2187500), wk =   0.0058594
        k(  220) = (   0.0937500  -0.3437500  -0.1562500), wk =   0.0058594
        k(  221) = (   0.0937500  -0.2812500  -0.2812500), wk =   0.0029297
        k(  222) = (   0.0937500  -0.2812500  -0.2187500), wk =   0.0058594
        k(  223) = (   0.0937500  -0.2812500  -0.1562500), wk =   0.0058594
        k(  224) = (   0.0937500  -0.2187500  -0.2187500), wk =   0.0029297
        k(  225) = (   0.0937500  -0.2187500  -0.1562500), wk =   0.0058594
        k(  226) = (   0.0937500  -0.1562500  -0.1562500), wk =   0.0029297
        k(  227) = (   0.1562500   0.1562500   0.1562500), wk =   0.0009766
        k(  228) = (   0.1562500   0.1562500   0.2187500), wk =   0.0029297
        k(  229) = (   0.1562500   0.1562500   0.2812500), wk =   0.0029297
        k(  230) = (   0.1562500   0.1562500   0.3437500), wk =   0.0029297
        k(  231) = (   0.1562500   0.1562500   0.4062500), wk =   0.0029297
        k(  232) = (   0.1562500   0.1562500   0.4687500), wk =   0.0029297
        k(  233) = (   0.1562500   0.1562500  -0.4687500), wk =   0.0029297
        k(  234) = (   0.1562500   0.1562500  -0.4062500), wk =   0.0029297
        k(  235) = (   0.1562500   0.1562500  -0.3437500), wk =   0.0029297
        k(  236) = (   0.1562500   0.1562500  -0.2812500), wk =   0.0029297
        k(  237) = (   0.1562500   0.1562500  -0.2187500), wk =   0.0029297
        k(  238) = (   0.1562500   0.1562500  -0.1562500), wk =   0.0029297
        k(  239) = (   0.1562500   0.2187500   0.2187500), wk =   0.0029297
        k(  240) = (   0.1562500   0.2187500   0.2812500), wk =   0.0058594
        k(  241) = (   0.1562500   0.2187500   0.3437500), wk =   0.0058594
        k(  242) = (   0.1562500   0.2187500   0.4062500), wk =   0.0058594
        k(  243) = (   0.1562500   0.2187500   0.4687500), wk =   0.0058594
        k(  244) = (   0.1562500   0.2187500  -0.4687500), wk =   0.0058594
        k(  245) = (   0.1562500   0.2187500  -0.4062500), wk =   0.0058594
        k(  246) = (   0.1562500   0.2187500  -0.3437500), wk =   0.0058594
        k(  247) = (   0.1562500   0.2187500  -0.2812500), wk =   0.0058594
        k(  248) = (   0.1562500   0.2187500  -0.2187500), wk =   0.0058594
        k(  249) = (   0.1562500   0.2187500  -0.1562500), wk =   0.0058594
        k(  250) = (   0.1562500   0.2812500   0.2812500), wk =   0.0029297
        k(  251) = (   0.1562500   0.2812500   0.3437500), wk =   0.0058594
        k(  252) = (   0.1562500   0.2812500   0.4062500), wk =   0.0058594
        k(  253) = (   0.1562500   0.2812500   0.4687500), wk =   0.0058594
        k(  254) = (   0.1562500   0.2812500  -0.4687500), wk =   0.0058594
        k(  255) = (   0.1562500   0.2812500  -0.4062500), wk =   0.0058594
        k(  256) = (   0.1562500   0.2812500  -0.3437500), wk =   0.0058594
        k(  257) = (   0.1562500   0.2812500  -0.2812500), wk =   0.0058594
        k(  258) = (   0.1562500   0.2812500  -0.2187500), wk =   0.0058594
        k(  259) = (   0.1562500   0.2812500  -0.1562500), wk =   0.0058594
        k(  260) = (   0.1562500   0.3437500   0.3437500), wk =   0.0029297
        k(  261) = (   0.1562500   0.3437500   0.4062500), wk =   0.0058594
        k(  262) = (   0.1562500   0.3437500   0.4687500), wk =   0.0058594
        k(  263) = (   0.1562500   0.3437500  -0.4687500), wk =   0.0058594
        k(  264) = (   0.1562500   0.3437500  -0.4062500), wk =   0.0058594
        k(  265) = (   0.1562500   0.3437500  -0.3437500), wk =   0.0058594
        k(  266) = (   0.1562500   0.3437500  -0.2812500), wk =   0.0058594
        k(  267) = (   0.1562500   0.3437500  -0.2187500), wk =   0.0058594
        k(  268) = (   0.1562500   0.3437500  -0.1562500), wk =   0.0058594
        k(  269) = (   0.1562500   0.4062500   0.4062500), wk =   0.0029297
        k(  270) = (   0.1562500   0.4062500   0.4687500), wk =   0.0058594
        k(  271) = (   0.1562500   0.4062500  -0.4687500), wk =   0.0058594
        k(  272) = (   0.1562500   0.4062500  -0.4062500), wk =   0.0058594
        k(  273) = (   0.1562500   0.4062500  -0.3437500), wk =   0.0058594
        k(  274) = (   0.1562500   0.4062500  -0.2812500), wk =   0.0058594
        k(  275) = (   0.1562500   0.4062500  -0.2187500), wk =   0.0058594
        k(  276) = (   0.1562500   0.4062500  -0.1562500), wk =   0.0058594
        k(  277) = (   0.1562500   0.4687500   0.4687500), wk =   0.0029297
        k(  278) = (   0.1562500   0.4687500  -0.4687500), wk =   0.0058594
        k(  279) = (   0.1562500   0.4687500  -0.4062500), wk =   0.0058594
[...]
    14.2688  15.4591  16.7633  19.5090  21.0119  21.2711  23.3095  24.3089
    25.6004  29.5775  30.3199  30.5825  30.9356  32.9304  34.1766  35.3097
    35.5409  37.2300  37.8193  38.5011  39.3746  40.5714

     occupation numbers 
     1.0000   1.0000   1.0000   1.0000   0.0000   0.0000   0.0000   0.0000
     0.0000   0.0000   0.0000   0.0000   0.0000   0.0000   0.0000   0.0000
     0.0000   0.0000   0.0000   0.0000   0.0000   0.0000   0.0000   0.0000
     0.0000   0.0000   0.0000   0.0000   0.0000   0.0000

          k =-0.4688 0.4688 0.2188 (   926 PWs)   bands (ev):

    -3.6239   0.3907   3.9442   5.2516   8.9422  10.1395  10.2707  14.0386
    14.0400  15.8943  18.1924  18.4411  21.4576  21.5604  23.1274  24.5036
    26.6621  29.1651  29.4407  29.9597  31.1239  31.9343  34.3816  34.9629
    35.1737  36.2119  37.2146  38.7181  40.0041  40.8964

     occupation numbers 
     1.0000   1.0000   1.0000   1.0000   0.0000   0.0000   0.0000   0.0000
     0.0000   0.0000   0.0000   0.0000   0.0000   0.0000   0.0000   0.0000
     0.0000   0.0000   0.0000   0.0000   0.0000   0.0000   0.0000   0.0000
     0.0000   0.0000   0.0000   0.0000   0.0000   0.0000

          k = 0.4688-0.4688 1.1562 (   923 PWs)   bands (ev):

    -3.2516   0.2118   3.0587   4.9605   8.7891  10.8964  10.9471  13.9117
    13.9618  15.4790  18.0789  20.2270  21.7075  21.8558  22.9365  25.0067
    26.4700  28.3171  29.0999  29.2782  31.0662  32.4675  33.9286  33.9722
    34.7672  35.1060  36.2291  39.0698  40.1964  41.0927

     occupation numbers 
     1.0000   1.0000   1.0000   1.0000   0.0000   0.0000   0.0000   0.0000
     0.0000   0.0000   0.0000   0.0000   0.0000   0.0000   0.0000   0.0000
     0.0000   0.0000   0.0000   0.0000   0.0000   0.0000   0.0000   0.0000
     0.0000   0.0000   0.0000   0.0000   0.0000   0.0000

          k = 0.4062-0.4062 1.0938 (   930 PWs)   bands (ev):

    -2.8182   0.0171   2.3465   4.6331   8.4179  11.8305  11.9382  13.8323
    13.9018  14.3077  19.1699  21.6913  21.9783  22.1179  22.9077  25.0661
    25.5239  27.1523  28.8778  29.5477  30.9998  32.3298  32.4120  34.1463
    34.1865  35.2906  36.0869  37.1435  41.1328  41.3336

     occupation numbers 
     1.0000   1.0000   1.0000   1.0000   0.0000   0.0000   0.0000   0.0000
     0.0000   0.0000   0.0000   0.0000   0.0000   0.0000   0.0000   0.0000
     0.0000   0.0000   0.0000   0.0000   0.0000   0.0000   0.0000   0.0000
     0.0000   0.0000   0.0000   0.0000   0.0000   0.0000

          k = 0.3438-0.3438 1.0312 (   934 PWs)   bands (ev):

    -2.3586  -0.2854   1.9668   4.3274   8.0539  12.4062  12.7937  13.4165
    14.0647  14.0759  20.5981  21.6109  22.2372  22.4790  23.5699  23.9494
    25.2935  26.6491  28.9328  29.2074  30.0728  30.9535  32.9897  33.6376
    34.6786  35.7426  36.0059  36.1543  41.6329  42.0345

     occupation numbers 
     1.0000   1.0000   1.0000   1.0000   0.0000   0.0000   0.0000   0.0000
     0.0000   0.0000   0.0000   0.0000   0.0000   0.0000   0.0000   0.0000
     0.0000   0.0000   0.0000   0.0000   0.0000   0.0000   0.0000   0.0000
     0.0000   0.0000   0.0000   0.0000   0.0000   0.0000

          k =-0.3438 0.4688 0.3438 (   926 PWs)   bands (ev):

    -3.7561   0.3245   5.0564   5.0925   8.5093   9.6981  10.1709  13.8227
    15.0272  15.8975  16.8421  19.4360  20.0463  21.4690  23.5021  24.8570
    25.9205  29.8083  30.1276  30.4537  30.7401  32.5249  34.3480  34.8876
    35.2681  37.1026  37.9337  38.3610  39.0405  40.3817

     occupation numbers 
     1.0000   1.0000   1.0000   1.0000   0.0000   0.0000   0.0000   0.0000
     0.0000   0.0000   0.0000   0.0000   0.0000   0.0000   0.0000   0.0000
     0.0000   0.0000   0.0000   0.0000   0.0000   0.0000   0.0000   0.0000
     0.0000   0.0000   0.0000   0.0000   0.0000   0.0000

          k =-0.4062 0.5312 0.2812 (   921 PWs)   bands (ev):

    -3.5092   0.1061   4.3177   5.0594   8.8733   9.6600  10.4837  13.6181
    15.2501  16.0920  18.1311  18.2600  20.1013  21.8467  23.6644  25.0575
    26.7864  28.9305  29.3899  30.0349  31.4172  31.7277  34.1749  34.5750
    35.1648  36.8161  37.6427  38.0662  39.4277  39.7238

     occupation numbers 
     1.0000   1.0000   1.0000   1.0000   0.0000   0.0000   0.0000   0.0000
     0.0000   0.0000   0.0000   0.0000   0.0000   0.0000   0.0000   0.0000
     0.0000   0.0000   0.0000   0.0000   0.0000   0.0000   0.0000   0.0000
     0.0000   0.0000   0.0000   0.0000   0.0000   0.0000

          k = 0.5312-0.4062 1.2188 (   930 PWs)   bands (ev):

    -3.1870  -0.0446   3.4619   4.8181   9.1151   9.8077  11.2280  13.5087
    15.3830  15.5834  17.7487  19.9225  20.3875  22.1738  23.5246  25.5196
    26.8794  28.1430  28.8682  29.2147  30.9499  32.6950  33.8499  33.9125
    34.2968  35.9484  37.0299  38.6674  39.2509  40.7506

     occupation numbers 
     1.0000   1.0000   1.0000   1.0000   0.0000   0.0000   0.0000   0.0000
     0.0000   0.0000   0.0000   0.0000   0.0000   0.0000   0.0000   0.0000
     0.0000   0.0000   0.0000   0.0000   0.0000   0.0000   0.0000   0.0000
     0.0000   0.0000   0.0000   0.0000   0.0000   0.0000

          k = 0.4688-0.3438 1.1562 (   935 PWs)   bands (ev):

    -2.8027  -0.1633   2.6883   4.4837   8.7902  10.6277  12.2304  13.4473
    14.2550  15.4940  18.5659  20.6022  21.7981  22.3956  23.2830  25.4769
    26.2002  27.3460  28.1130  29.3012  31.1227  32.1678  33.1197  33.5393
    34.4755  35.1789  36.9815  37.9535  39.8257  40.1402

     occupation numbers 
     1.0000   1.0000   1.0000   1.0000   0.0000   0.0000   0.0000   0.0000
     0.0000   0.0000   0.0000   0.0000   0.0000   0.0000   0.0000   0.0000
     0.0000   0.0000   0.0000   0.0000   0.0000   0.0000   0.0000   0.0000
     0.0000   0.0000   0.0000   0.0000   0.0000   0.0000

          k = 0.4062-0.2812 1.0938 (   928 PWs)   bands (ev):

    -2.3761  -0.3366   2.1556   4.1490   8.4089  11.6258  12.7092  13.3513
    13.6762  15.5429  19.8850  20.7916  22.4609  22.8785  23.7605  24.0844
    25.9828  26.4376  28.1688  29.0371  30.2458  31.9137  32.8501  32.8840
    34.7653  35.7963  36.3786  37.2166  40.0879  40.8482

     occupation numbers 
     1.0000   1.0000   1.0000   1.0000   0.0000   0.0000   0.0000   0.0000
     0.0000   0.0000   0.0000   0.0000   0.0000   0.0000   0.0000   0.0000
     0.0000   0.0000   0.0000   0.0000   0.0000   0.0000   0.0000   0.0000
     0.0000   0.0000   0.0000   0.0000   0.0000   0.0000

          k =-0.3438 0.5938 0.3438 (   918 PWs)   bands (ev):

    -3.3163  -0.1067   4.2214   4.8044   8.6665  10.0033  10.6260  13.3408
    15.5689  17.1934  18.0621  18.1172  19.1166  22.1930  24.2543  25.4885
    27.0723  28.0144  28.7730  29.9303  31.1968  32.2190  33.9827  34.5198
    35.0890  36.7497  37.0255  37.5276  39.8443  39.8713

     occupation numbers 
     1.0000   1.0000   1.0000   1.0000   0.0000   0.0000   0.0000   0.0000
     0.0000   0.0000   0.0000   0.0000   0.0000   0.0000   0.0000   0.0000
     0.0000   0.0000   0.0000   0.0000   0.0000   0.0000   0.0000   0.0000
     0.0000   0.0000   0.0000   0.0000   0.0000   0.0000

          k = 0.5938-0.3438 1.2812 (   926 PWs)   bands (ev):

    -3.0552  -0.2400   3.6099   4.6096   8.8449   9.9947  11.3160  13.1920
    15.5888  16.7360  17.9302  18.8209  19.8459  22.5161  24.4349  25.9299
    26.9288  27.1402  28.4895  29.2696  30.8903  32.9988  33.6390  33.7711
    34.5059  36.4271  37.2499  37.6746  38.8168  40.6309

     occupation numbers 
     1.0000   1.0000   1.0000   1.0000   0.0000   0.0000   0.0000   0.0000
     0.0000   0.0000   0.0000   0.0000   0.0000   0.0000   0.0000   0.0000
     0.0000   0.0000   0.0000   0.0000   0.0000   0.0000   0.0000   0.0000
     0.0000   0.0000   0.0000   0.0000   0.0000   0.0000

          k = 0.5312-0.2812 1.2188 (   934 PWs)   bands (ev):

    -2.7389  -0.3126   2.9451   4.2441   9.4786   9.6472  12.4024  13.1208
    14.4076  16.9110  18.2389  19.2235  21.5558  22.7973  24.1674  25.5918
    26.1820  26.9811  28.2889  28.8599  31.1534  32.0092  32.8725  33.3150
    35.0633  36.1163  37.3096  37.9721  38.9437  39.5026

     occupation numbers 
     1.0000   1.0000   1.0000   1.0000   0.0000   0.0000   0.0000   0.0000
     0.0000   0.0000   0.0000   0.0000   0.0000   0.0000   0.0000   0.0000
     0.0000   0.0000   0.0000   0.0000   0.0000   0.0000   0.0000   0.0000
     0.0000   0.0000   0.0000   0.0000   0.0000   0.0000

          k = 0.4688-0.2188 1.1562 (   934 PWs)   bands (ev):

    -2.3813  -0.3892   2.4124   3.8311   9.2595  10.4025  12.7926  13.2817
    13.6336  17.0702  18.9067  19.8237  22.9112  23.2595  23.6532  24.5292
    25.6431  27.1150  27.7179  28.6839  30.2344  32.3641  32.4269  32.7664
    35.0003  36.4417  37.1981  37.8367  38.4728  39.8123

     occupation numbers 
     1.0000   1.0000   1.0000   1.0000   0.0000   0.0000   0.0000   0.0000
     0.0000   0.0000   0.0000   0.0000   0.0000   0.0000   0.0000   0.0000
     0.0000   0.0000   0.0000   0.0000   0.0000   0.0000   0.0000   0.0000
     0.0000   0.0000   0.0000   0.0000   0.0000   0.0000

          k =-0.3438-1.2812 0.3438 (   934 PWs)   bands (ev):

    -2.8683  -0.3507   3.2785   4.5643   8.4074  10.9345  11.2650  13.0054
    15.8470  16.3168  18.2556  19.0741  19.9608  22.8265  25.2036  25.8739
    26.0068  27.4888  27.5594  28.9704  31.0231  33.2705  33.4647  33.5639
    34.3592  36.1461  36.8281  37.5693  38.6378  40.9058

     occupation numbers 
     1.0000   1.0000   1.0000   1.0000   0.0000   0.0000   0.0000   0.0000
     0.0000   0.0000   0.0000   0.0000   0.0000   0.0000   0.0000   0.0000
     0.0000   0.0000   0.0000   0.0000   0.0000   0.0000   0.0000   0.0000
     0.0000   0.0000   0.0000   0.0000   0.0000   0.0000

          k =-0.4062-1.2188 0.2812 (   934 PWs)   bands (ev):

    -2.6399  -0.3840   2.8026   4.3086   8.5828  10.7637  12.3039  12.9274
    14.6941  16.5624  18.5887  19.3769  21.3333  23.1061  24.7533  25.0822
    26.1200  26.7930  28.0434  28.6201  31.4666  31.9108  33.0135  33.1351
    34.8466  36.2395  36.9014  37.7173  38.7339  40.0587

     occupation numbers 
     1.0000   1.0000   1.0000   1.0000   0.0000   0.0000   0.0000   0.0000
     0.0000   0.0000   0.0000   0.0000   0.0000   0.0000   0.0000   0.0000
     0.0000   0.0000   0.0000   0.0000   0.0000   0.0000   0.0000   0.0000
     0.0000   0.0000   0.0000   0.0000   0.0000   0.0000

          k =-0.3438-1.1562 0.3438 (   932 PWs)   bands (ev):

    -2.5173  -0.3763   2.4429   4.4002   8.1665  11.9454  12.0486  12.8750
    15.0386  15.1292  19.1154  20.7020  21.3393  23.3448  23.8405  25.0418
    25.8392  26.8182  27.9797  28.6153  31.6671  32.0514  32.1419  33.1374
    35.0733  36.1244  36.1789  36.9262  39.6247  41.1670

     occupation numbers 
     1.0000   1.0000   1.0000   1.0000   0.0000   0.0000   0.0000   0.0000
     0.0000   0.0000   0.0000   0.0000   0.0000   0.0000   0.0000   0.0000
     0.0000   0.0000   0.0000   0.0000   0.0000   0.0000   0.0000   0.0000
     0.0000   0.0000   0.0000   0.0000   0.0000   0.0000

          k =-0.4062 0.4062 0.4062 (   929 PWs)   bands (ev):

    -3.6448   0.0374   5.2731   5.2731   8.1531   9.8338   9.8338  14.3040
    15.5691  15.5691  16.8252  19.6177  19.6177  20.6502  23.7511  25.9590
    25.9590  29.4859  30.4543  30.4543  30.6656  33.5738  33.5738  34.6768
    34.6768  36.5239  37.3299  39.5423  39.5423  40.3069

     occupation numbers 
     1.0000   1.0000   1.0000   1.0000   0.0000   0.0000   0.0000   0.0000
     0.0000   0.0000   0.0000   0.0000   0.0000   0.0000   0.0000   0.0000
     0.0000   0.0000   0.0000   0.0000   0.0000   0.0000   0.0000   0.0000
     0.0000   0.0000   0.0000   0.0000   0.0000   0.0000

          k =-0.4688 0.4688 0.3438 (   928 PWs)   bands (ev):

    -3.4543  -0.1686   4.7892   5.2526   8.4506   9.8348   9.8943  14.4012
    15.3078  15.9955  17.8828  18.2806  19.8533  20.7465  24.1457  25.9044
    27.1093  28.7348  29.6872  30.0254  31.4772  32.3299  33.8701  34.3994
    34.8650  36.5170  37.9937  38.1380  38.8608  40.3091

     occupation numbers 
     1.0000   1.0000   1.0000   1.0000   0.0000   0.0000   0.0000   0.0000
     0.0000   0.0000   0.0000   0.0000   0.0000   0.0000   0.0000   0.0000
     0.0000   0.0000   0.0000   0.0000   0.0000   0.0000   0.0000   0.0000
     0.0000   0.0000   0.0000   0.0000   0.0000   0.0000

          k = 0.4688-0.4688 1.2812 (   929 PWs)   bands (ev):

    -3.1944  -0.2868   3.9605   5.0423   8.7924  10.0277  10.3428  14.7173
    15.1278  15.5165  17.4809  19.6234  20.1320  20.9972  24.2496  26.1564
    27.7044  27.9351  28.8462  29.2296  31.3209  32.5961  33.3288  34.5483
    34.6665  36.0047  36.9451  37.7134  40.0658  40.3676

     occupation numbers 
     1.0000   1.0000   1.0000   1.0000   0.0000   0.0000   0.0000   0.0000
     0.0000   0.0000   0.0000   0.0000   0.0000   0.0000   0.0000   0.0000
     0.0000   0.0000   0.0000   0.0000   0.0000   0.0000   0.0000   0.0000
     0.0000   0.0000   0.0000   0.0000   0.0000   0.0000

          k = 0.4062-0.4062 1.2188 (   930 PWs)   bands (ev):

    -2.8776  -0.3346   3.1194   4.7304   8.5608  10.8911  11.0903  14.2311
    14.9898  15.0366  17.9610  20.4291  21.1012  21.6032  24.0526  26.5989
    26.6188  27.0730  28.4995  28.5695  31.5706  32.6702  33.4825  33.5680
    34.1920  35.5529  36.2058  38.3807  39.0907  40.8836

     occupation numbers 
     1.0000   1.0000   1.0000   1.0000   0.0000   0.0000   0.0000   0.0000
     0.0000   0.0000   0.0000   0.0000   0.0000   0.0000   0.0000   0.0000
     0.0000   0.0000   0.0000   0.0000   0.0000   0.0000   0.0000   0.0000
     0.0000   0.0000   0.0000   0.0000   0.0000   0.0000

          k =-0.4062 0.5312 0.4062 (   924 PWs)   bands (ev):

    -3.3289  -0.3587   4.9084   5.0842   8.4294   9.6799  10.0250  14.3162
    15.4549  16.9256  17.8526  18.1216  18.9573  20.7075  24.7502  26.5164
    27.4924  27.9723  29.4197  29.6746  31.9656  32.4079  33.2792  34.5806
    34.9122  36.0372  38.0197  38.3521  38.4793  40.2184

     occupation numbers 
     1.0000   1.0000   1.0000   1.0000   0.0000   0.0000   0.0000   0.0000
     0.0000   0.0000   0.0000   0.0000   0.0000   0.0000   0.0000   0.0000
     0.0000   0.0000   0.0000   0.0000   0.0000   0.0000   0.0000   0.0000
     0.0000   0.0000   0.0000   0.0000   0.0000   0.0000

          k = 0.5312-0.4062 1.3438 (   926 PWs)   bands (ev):

    -3.1440  -0.4474   4.2834   4.9613   8.8235   9.6007  10.4130  14.4611
    15.3331  16.4464  17.7184  18.6711  19.5261  20.9339  25.1255  26.7043
    27.1614  28.0583  28.5963  29.1959  31.7442  32.7453  32.7851  34.5413
    34.9353  36.0847  37.2336  37.6784  39.4280  39.4963

     occupation numbers 
     1.0000   1.0000   1.0000   1.0000   0.0000   0.0000   0.0000   0.0000
     0.0000   0.0000   0.0000   0.0000   0.0000   0.0000   0.0000   0.0000
     0.0000   0.0000   0.0000   0.0000   0.0000   0.0000   0.0000   0.0000
     0.0000   0.0000   0.0000   0.0000   0.0000   0.0000

          k = 0.4688-0.3438 1.2812 (   929 PWs)   bands (ev):

    -2.9114  -0.4405   3.5065   4.6671   8.9487   9.8688  11.2486  14.3537
    14.6094  16.2926  17.8809  19.0440  20.9758  21.4251  25.0716  26.0720
    27.1378  27.5519  27.8163  28.9619  31.7880  32.1490  33.3405  33.6896
    34.7714  36.0834  36.6886  37.8021  38.8887  40.6053

     occupation numbers 
     1.0000   1.0000   1.0000   1.0000   0.0000   0.0000   0.0000   0.0000
     0.0000   0.0000   0.0000   0.0000   0.0000   0.0000   0.0000   0.0000
     0.0000   0.0000   0.0000   0.0000   0.0000   0.0000   0.0000   0.0000
     0.0000   0.0000   0.0000   0.0000   0.0000   0.0000

          k =-0.4062-1.3438 0.4062 (   926 PWs)   bands (ev):

    -3.0469  -0.4984   4.0555   4.8902   8.6978   9.9804  10.4585  14.3580
    15.4082  16.3630  17.7684  18.7780  19.6332  21.1339  25.8021  26.1410
    27.1234  28.0521  28.5209  28.6151  31.9024  32.2848  33.1976  34.5300
    34.9848  35.9896  36.7913  37.1466  39.9778  40.0196

     occupation numbers 
     1.0000   1.0000   1.0000   1.0000   0.0000   0.0000   0.0000   0.0000
     0.0000   0.0000   0.0000   0.0000   0.0000   0.0000   0.0000   0.0000
     0.0000   0.0000   0.0000   0.0000   0.0000   0.0000   0.0000   0.0000
     0.0000   0.0000   0.0000   0.0000   0.0000   0.0000

          k =-0.4688 0.4688 0.4688 (   930 PWs)   bands (ev):

    -3.2815  -0.5203   5.2167   5.2167   8.0900   9.7711   9.7711  14.2102
    16.6800  16.6800  17.7627  18.2726  18.2726  19.9135  25.3721  27.4272
    27.6291  27.6291  29.2592  29.2592  32.1922  33.2821  33.2821  34.3995
    34.3995  35.3607  37.5268  39.4168  39.4168  39.9304

     occupation numbers 
     1.0000   1.0000   1.0000   1.0000   0.0000   0.0000   0.0000   0.0000
     0.0000   0.0000   0.0000   0.0000   0.0000   0.0000   0.0000   0.0000
     0.0000   0.0000   0.0000   0.0000   0.0000   0.0000   0.0000   0.0000
     0.0000   0.0000   0.0000   0.0000   0.0000   0.0000

          k = 0.4688-0.4688 1.4062 (   929 PWs)   bands (ev):

    -3.1849  -0.5667   4.8176   5.1391   8.4093   9.7231   9.9285  14.3980
    16.2876  16.4867  17.6980  18.4991  18.7651  20.0587  25.8587  26.7098
    27.7012  28.2278  28.5965  29.0343  32.4570  32.5955  32.9083  34.6551
    34.6952  35.4739  38.0447  38.1442  38.5415  40.3160

     occupation numbers 
     1.0000   1.0000   1.0000   1.0000   0.0000   0.0000   0.0000   0.0000
     0.0000   0.0000   0.0000   0.0000   0.0000   0.0000   0.0000   0.0000
     0.0000   0.0000   0.0000   0.0000   0.0000   0.0000   0.0000   0.0000
     0.0000   0.0000   0.0000   0.0000   0.0000   0.0000

     highest occupied, lowest unoccupied level (ev):     6.3976    7.0351

     Writing output data file Si_bulk.save/

     init_run     :      0.08s CPU      0.09s WALL (       1 calls)
     electrons    :    126.73s CPU    114.50s WALL (       1 calls)

     Called by init_run:
     wfcinit      :      0.00s CPU      0.00s WALL (       1 calls)
     wfcinit:atom :      0.05s CPU      0.06s WALL (     408 calls)
     wfcinit:wfcr :      6.64s CPU      6.62s WALL (     408 calls)
     potinit      :      0.01s CPU      0.02s WALL (       1 calls)
     hinit0       :      0.06s CPU      0.06s WALL (       1 calls)

     Called by electrons:
     c_bands      :    126.72s CPU    114.49s WALL (       1 calls)
     v_of_rho     :      0.01s CPU      0.01s WALL (       1 calls)
     v_h          :      0.00s CPU      0.00s WALL (       1 calls)
     v_xc         :      0.01s CPU      0.01s WALL (       1 calls)

     Called by c_bands:
     init_us_2    :      0.06s CPU      0.06s WALL (     408 calls)
     cegterg      :    119.58s CPU    107.08s WALL (     562 calls)

     Called by sum_band:

     Called by *egterg:
     h_psi        :     71.87s CPU     72.84s WALL (    9068 calls)
     g_psi        :      0.45s CPU      0.46s WALL (    8098 calls)
     cdiaghg      :     21.48s CPU     21.34s WALL (    8506 calls)
     cegterg:over :     13.97s CPU      7.73s WALL (    8098 calls)
     cegterg:upda :     10.37s CPU      6.19s WALL (    8098 calls)
     cegterg:last :      6.37s CPU      3.47s WALL (    1775 calls)

     Called by h_psi:
     h_psi:pot    :     71.67s CPU     72.64s WALL (    9068 calls)
     h_psi:calbec :      1.08s CPU      1.11s WALL (    9068 calls)
     vloc_psi     :     69.14s CPU     70.40s WALL (    9068 calls)
     add_vuspsi   :      1.43s CPU      1.10s WALL (    9068 calls)

     General routines
     calbec       :      1.06s CPU      1.09s WALL (    9068 calls)
     fft          :      0.00s CPU      0.00s WALL (      10 calls)
     fftw         :     59.59s CPU     60.57s WALL (  300656 calls)
     davcio       :      0.00s CPU      0.46s WALL (     816 calls)


     PWSCF        :   2m 7.06s CPU   1m55.95s WALL


   This run was terminated on:  14:29:12  28Apr2021            

=------------------------------------------------------------------------------=
   JOB DONE.
=------------------------------------------------------------------------------=
